LAMMPS (17 Nov 2015)
WARNING: OMP_NUM_THREADS environment is not set. (../comm.cpp:90)
  using 1 OpenMP thread(s) per MPI task


# ----------------- Init Section -----------------

include "system.in.init"


	units 			real
	atom_style 		full
	pair_style 		lj/cut/coul/cut 10 10
	bond_style 		harmonic
	#pair_modify 	mix arithmetic

    # -- Default styles (for solo "SPCE" water) --
    units        real
    atom_style   full
    # (   force fields were not necessary but are used for portability.)
    pair_style      lj/charmm/coul/long 9.0 10.0 10.0
    bond_style      harmonic
    angle_style     harmonic
    kspace_style pppm 0.0001
    #pair_modify  mix arithmetic  # LEAVE THIS UNSPECIFIED!
    units real
    atom_style full
    bond_style    harmonic
    angle_style    harmonic
    dihedral_style    opls
    improper_style    harmonic
    pair_style    lj/cut/coul/long 10.0 10.0
    pair_modify mix geometric
    special_bonds lj/coul 0.0 0.0 0.5
    kspace_style pppm 0.0001

# ----------------- Atom Definition Section -----------------

read_data "h2o_n2_ch3oh_ion.data"
  orthogonal box = (126.35 126.35 126.35) to (529.65 529.65 529.65)
  1 by 3 by 3 MPI processor grid
  reading atoms ...
  11012 atoms
  reading velocities ...
  11012 velocities
  scanning bonds ...
  4 = max bonds/atom
  scanning angles ...
  6 = max angles/atom
  scanning dihedrals ...
  3 = max dihedrals/atom
  reading bonds ...
  8000 bonds
  reading angles ...
  8000 angles
  reading dihedrals ...
  3000 dihedrals
  4 = max # of 1-2 neighbors
  3 = max # of 1-3 neighbors
  4 = max # of 1-4 neighbors
  5 = max # of special neighbors

# ----------------- Settings Section -----------------

include "system.in.settings"


	pair_coeff 1 1 0.073934 3.29

	bond_coeff 1    3556.8447 1.09324
    bond_coeff   2                        600.0   1.0
    angle_coeff  1                      75.0    109.47
    pair_coeff   2 2  0.1553  3.166
    pair_coeff   3 3   0.0     0.0
    group spce type  2  3
3000 atoms in group spce
    fix fShakeSPCE spce shake 0.0001 10 100 b 2 a 1
  0 = # of size 2 clusters
  0 = # of size 3 clusters
  0 = # of size 4 clusters
  1000 = # of frozen angles
    # (Remember to "unfix" fShakeSPCE during minimization.)
    pair_coeff 4 4    0.061 2.94
    pair_coeff 5 5    0.118 3.905
    pair_coeff 6 6    0.105 3.75
    pair_coeff 7 7    0.21 2.96
    pair_coeff 8 8    0.17 3.0
    pair_coeff 9 9    0.16 3.91
    pair_coeff 10 10    0.0 0.0
    pair_coeff 11 11    0.294 3.73
    pair_coeff 12 12    0.207 3.775
    pair_coeff 13 13    0.175 3.905
    pair_coeff 14 14    0.16 3.91
    pair_coeff 15 15    0.145 3.96
    pair_coeff 16 16    0.118 3.905
    pair_coeff 17 17    0.14 3.85
    pair_coeff 18 18    0.08 3.85
    pair_coeff 19 19    0.115 3.8
    pair_coeff 20 20    0.11 3.75
    pair_coeff 21 21    0.05 3.8
    pair_coeff 22 22    0.105 3.75
    pair_coeff 23 23    0.17 3.07
    pair_coeff 24 24    0.0 0.0
    pair_coeff 25 25    0.207 3.775
    pair_coeff 26 26    0.118 3.905
    pair_coeff 27 27    0.25 3.7
    pair_coeff 28 28    0.25 3.55
    pair_coeff 29 29    0.25 3.55
    pair_coeff 30 30    0.25 3.55
    pair_coeff 31 31    0.0 0.0
    pair_coeff 32 32    0.0 0.0
    pair_coeff 33 33    0.207 3.775
    pair_coeff 34 34    0.118 3.905
    pair_coeff 35 35    0.17 3.8
    pair_coeff 36 36    0.118 3.8
    pair_coeff 37 37    0.17 3.8
    pair_coeff 38 38    0.118 3.8
    pair_coeff 39 39    0.17 3.2
    pair_coeff 40 40    0.15 3.65
    pair_coeff 41 41    0.207 3.775
    pair_coeff 42 42    0.08 3.85
    pair_coeff 43 43    0.05 3.8
    pair_coeff 44 44    0.17 3.0
    pair_coeff 45 45    0.17 3.8
    pair_coeff 46 46    0.118 3.8
    pair_coeff 47 47    0.118 3.8
    pair_coeff 48 48    0.3 3.4
    pair_coeff 49 49    0.08 3.8
    pair_coeff 50 50    0.3 3.47
    pair_coeff 51 51    0.05 3.8
    pair_coeff 52 52    0.266 3.47
    pair_coeff 53 53    0.395 3.56
    pair_coeff 54 54    0.28 2.93
    pair_coeff 55 55    0.16 3.81
    pair_coeff 56 56    0.21 2.96
    pair_coeff 57 57    0.17 3.25
    pair_coeff 58 58    0.115 3.8
    pair_coeff 59 59    0.17 3.8
    pair_coeff 60 60    0.0 0.0
    pair_coeff 61 61    0.02 2.556
    pair_coeff 62 62    0.069 2.78
    pair_coeff 63 63    0.2339 3.401
    pair_coeff 64 64    0.317 3.624
    pair_coeff 65 65    0.433 3.935
    pair_coeff 66 66    0.1521 3.15061
    pair_coeff 67 67    0.0 0.0
    pair_coeff 68 68    0.155 3.15365
    pair_coeff 69 69    0.0 0.0
    pair_coeff 70 70    0.0 0.0
    pair_coeff 71 71    0.15 3.176
    pair_coeff 72 72    0.0 0.0
    pair_coeff 73 73    0.1 3.27
    pair_coeff 74 74    0.0 0.0
    pair_coeff 75 75    0.0 0.0
    pair_coeff 76 76    0.16 3.12
    pair_coeff 77 77    0.0 0.0
    pair_coeff 78 78    0.0 0.0
    pair_coeff 79 79    0.1554 3.16557
    pair_coeff 80 80    0.0 0.0
    pair_coeff 81 81    0.17 3.42
    pair_coeff 82 82    0.0 0.0
    pair_coeff 83 83    0.066 3.5
    pair_coeff 84 84    0.066 3.5
    pair_coeff 85 85    0.066 3.5
    pair_coeff 86 86    0.066 3.5
    pair_coeff 87 87    0.066 3.5
    pair_coeff 88 88    0.03 2.5
    pair_coeff 89 89    0.076 3.55
    pair_coeff 90 90    0.076 3.55
    pair_coeff 91 91    0.076 3.55
    pair_coeff 92 92    0.03 2.42
    pair_coeff 93 93    0.07 3.55
    pair_coeff 94 94    0.03 2.42
    pair_coeff 95 95    0.07 3.55
    pair_coeff 96 96    0.066 3.5
    pair_coeff 97 97    0.066 3.5
    pair_coeff 98 98    0.076 3.55
    pair_coeff 99 99    0.17 3.12
    pair_coeff 100 100    0.0 0.0
    pair_coeff 101 101    0.03 2.5
    pair_coeff 102 102    0.066 3.5
    pair_coeff 103 103    0.066 3.5
    pair_coeff 104 104    0.066 3.5
    pair_coeff 105 105    0.066 3.5
    pair_coeff 106 106    0.062 3.25
    pair_coeff 107 107    0.17 3.07
    pair_coeff 108 108    0.0 0.0
    pair_coeff 109 109    0.061 2.94
    pair_coeff 110 110    0.03 2.5
    pair_coeff 111 111    0.07 3.55
    pair_coeff 112 112    0.17 3.07
    pair_coeff 113 113    0.0 0.0
    pair_coeff 114 114    0.17 3.07
    pair_coeff 115 115    0.0 0.0
    pair_coeff 116 116    0.17 3.07
    pair_coeff 117 117    0.0 0.0
    pair_coeff 118 118    0.066 3.5
    pair_coeff 119 119    0.066 3.5
    pair_coeff 120 120    0.066 3.5
    pair_coeff 121 121    0.03 2.5
    pair_coeff 122 122    0.14 2.9
    pair_coeff 123 123    0.076 3.55
    pair_coeff 124 124    0.14 2.9
    pair_coeff 125 125    0.14 2.9
    pair_coeff 126 126    0.066 3.5
    pair_coeff 127 127    0.066 3.5
    pair_coeff 128 128    0.066 3.5
    pair_coeff 129 129    0.066 3.5
    pair_coeff 130 130    0.03 2.5
    pair_coeff 131 131    0.14 2.9
    pair_coeff 132 132    0.17 3.07
    pair_coeff 133 133    0.0 0.0
    pair_coeff 134 134    0.066 3.5
    pair_coeff 135 135    0.03 2.5
    pair_coeff 136 136    0.066 3.5
    pair_coeff 137 137    0.03 2.5
    pair_coeff 138 138    0.066 3.5
    pair_coeff 139 139    0.03 2.5
    pair_coeff 140 140    0.066 3.5
    pair_coeff 141 141    0.03 2.5
    pair_coeff 142 142    0.066 3.5
    pair_coeff 143 143    0.066 3.5
    pair_coeff 144 144    0.07 3.55
    pair_coeff 145 145    0.25 3.55
    pair_coeff 146 146    0.25 3.7
    pair_coeff 147 147    0.25 3.55
    pair_coeff 148 148    0.25 3.55
    pair_coeff 149 149    0.0 0.0
    pair_coeff 150 150    0.0 0.0
    pair_coeff 151 151    0.066 3.5
    pair_coeff 152 152    0.066 3.5
    pair_coeff 153 153    0.066 3.5
    pair_coeff 154 154    0.066 3.5
    pair_coeff 155 155    0.066 3.5
    pair_coeff 156 156    0.066 3.5
    pair_coeff 157 157    0.066 3.5
    pair_coeff 158 158    0.066 3.5
    pair_coeff 159 159    0.066 3.5
    pair_coeff 160 160    0.066 3.5
    pair_coeff 161 161    0.066 3.5
    pair_coeff 162 162    0.066 3.5
    pair_coeff 163 163    0.066 3.5
    pair_coeff 164 164    0.066 3.5
    pair_coeff 165 165    0.066 3.5
    pair_coeff 166 166    0.07 3.55
    pair_coeff 167 167    0.25 3.55
    pair_coeff 168 168    0.066 3.5
    pair_coeff 169 169    0.066 3.5
    pair_coeff 170 170    0.066 3.5
    pair_coeff 171 171    0.3 3.4
    pair_coeff 172 172    0.076 3.55
    pair_coeff 173 173    0.07 3.55
    pair_coeff 174 174    0.066 3.5
    pair_coeff 175 175    0.066 3.5
    pair_coeff 176 176    0.105 3.75
    pair_coeff 177 177    0.105 3.75
    pair_coeff 178 178    0.105 3.75
    pair_coeff 179 179    0.105 3.75
    pair_coeff 180 180    0.105 3.75
    pair_coeff 181 181    0.21 2.96
    pair_coeff 182 182    0.17 3.25
    pair_coeff 183 183    0.17 3.25
    pair_coeff 184 184    0.17 3.25
    pair_coeff 185 185    0.0 0.0
    pair_coeff 186 186    0.0 0.0
    pair_coeff 187 187    0.066 3.5
    pair_coeff 188 188    0.066 3.5
    pair_coeff 189 189    0.066 3.5
    pair_coeff 190 190    0.066 3.5
    pair_coeff 191 191    0.066 3.5
    pair_coeff 192 192    0.105 3.75
    pair_coeff 193 193    0.21 2.96
    pair_coeff 194 194    0.17 3.25
    pair_coeff 195 195    0.0 0.0
    pair_coeff 196 196    0.17 3.25
    pair_coeff 197 197    0.105 3.75
    pair_coeff 198 198    0.21 2.96
    pair_coeff 199 199    0.0 0.0
    pair_coeff 200 200    0.02 2.5
    pair_coeff 201 201    0.066 3.5
    pair_coeff 202 202    0.066 3.5
    pair_coeff 203 203    0.066 3.5
    pair_coeff 204 204    0.066 3.5
    pair_coeff 205 205    0.07 3.55
    pair_coeff 206 206    0.15 3.65
    pair_coeff 207 207    0.17 3.2
    pair_coeff 208 208    0.07 3.55
    pair_coeff 209 209    0.3 3.4
    pair_coeff 210 210    0.17 3.25
    pair_coeff 211 211    0.07 3.55
    pair_coeff 212 212    0.105 3.75
    pair_coeff 213 213    0.21 2.96
    pair_coeff 214 214    0.17 3.0
    pair_coeff 215 215    0.0 0.0
    pair_coeff 216 216    0.105 3.75
    pair_coeff 217 217    0.21 2.96
    pair_coeff 218 218    0.066 3.5
    pair_coeff 219 219    0.066 3.5
    pair_coeff 220 220    0.066 3.5
    pair_coeff 221 221    0.066 3.5
    pair_coeff 222 222    0.105 3.75
    pair_coeff 223 223    0.21 2.96
    pair_coeff 224 224    0.015 2.42
    pair_coeff 225 225    0.105 3.75
    pair_coeff 226 226    0.21 2.96
    pair_coeff 227 227    0.015 2.42
    pair_coeff 228 228    0.066 3.5
    pair_coeff 229 229    0.066 3.5
    pair_coeff 230 230    0.066 3.5
    pair_coeff 231 231    0.066 3.5
    pair_coeff 232 232    0.17 3.25
    pair_coeff 233 233    0.17 3.25
    pair_coeff 234 234    0.17 3.25
    pair_coeff 235 235    0.0 0.0
    pair_coeff 236 236    0.0 0.0
    pair_coeff 237 237    0.066 3.5
    pair_coeff 238 238    0.066 3.5
    pair_coeff 239 239    0.066 3.5
    pair_coeff 240 240    0.066 3.5
    pair_coeff 241 241    0.066 3.5
    pair_coeff 242 242    0.066 3.5
    pair_coeff 243 243    0.066 3.5
    pair_coeff 244 244    0.066 3.5
    pair_coeff 245 245    0.066 3.5
    pair_coeff 246 246    0.17 3.25
    pair_coeff 247 247    0.0 0.0
    pair_coeff 248 248    0.05 3.55
    pair_coeff 249 249    0.17 3.25
    pair_coeff 250 250    0.0 0.0
    pair_coeff 251 251    0.066 3.5
    pair_coeff 252 252    0.066 3.5
    pair_coeff 253 253    0.066 3.5
    pair_coeff 254 254    0.066 3.5
    pair_coeff 255 255    0.17 3.25
    pair_coeff 256 256    0.0 0.0
    pair_coeff 257 257    0.17 3.25
    pair_coeff 258 258    0.08 3.5
    pair_coeff 259 259    0.17 3.25
    pair_coeff 260 260    0.0 0.0
    pair_coeff 261 261    0.08 3.5
    pair_coeff 262 262    0.05 2.5
    pair_coeff 263 263    0.08 3.5
    pair_coeff 264 264    0.05 2.5
    pair_coeff 265 265    0.17 3.25
    pair_coeff 266 266    0.105 3.75
    pair_coeff 267 267    0.17 3.25
    pair_coeff 268 268    0.105 3.75
    pair_coeff 269 269    0.08 3.5
    pair_coeff 270 270    0.08 3.5
    pair_coeff 271 271    0.0 0.0
    pair_coeff 272 272    0.21 2.96
    pair_coeff 273 273    0.0 0.0
    pair_coeff 274 274    0.21 2.96
    pair_coeff 275 275    0.05 2.5
    pair_coeff 276 276    0.05 2.5
    pair_coeff 277 277    0.08 3.5
    pair_coeff 278 278    0.05 2.5
    pair_coeff 279 279    0.17 3.25
    pair_coeff 280 280    0.105 3.75
    pair_coeff 281 281    0.17 3.25
    pair_coeff 282 282    0.08 3.5
    pair_coeff 283 283    0.08 3.5
    pair_coeff 284 284    0.08 3.5
    pair_coeff 285 285    0.0 0.0
    pair_coeff 286 286    0.21 2.96
    pair_coeff 287 287    0.17 3.25
    pair_coeff 288 288    0.0 0.0
    pair_coeff 289 289    0.0 0.0
    pair_coeff 290 290    0.05 2.5
    pair_coeff 291 291    0.05 2.5
    pair_coeff 292 292    0.17 3.25
    pair_coeff 293 293    0.08 3.5
    pair_coeff 294 294    0.17 3.25
    pair_coeff 295 295    0.08 3.5
    pair_coeff 296 296    0.08 3.5
    pair_coeff 297 297    0.08 3.5
    pair_coeff 298 298    0.17 3.25
    pair_coeff 299 299    0.08 3.5
    pair_coeff 300 300    0.17 3.25
    pair_coeff 301 301    0.05 2.5
    pair_coeff 302 302    0.17 3.25
    pair_coeff 303 303    0.0 0.0
    pair_coeff 304 304    0.0 0.0
    pair_coeff 305 305    0.05 2.5
    pair_coeff 306 306    0.0 0.0
    pair_coeff 307 307    0.17 3.25
    pair_coeff 308 308    0.08 3.5
    pair_coeff 309 309    0.17 3.25
    pair_coeff 310 310    0.08 3.5
    pair_coeff 311 311    0.08 3.5
    pair_coeff 312 312    0.105 3.75
    pair_coeff 313 313    0.0 0.0
    pair_coeff 314 314    0.17 3.25
    pair_coeff 315 315    0.0 0.0
    pair_coeff 316 316    0.21 2.96
    pair_coeff 317 317    0.08 3.5
    pair_coeff 318 318    0.05 2.5
    pair_coeff 319 319    0.08 3.5
    pair_coeff 320 320    0.05 2.5
    pair_coeff 321 321    0.08 3.5
    pair_coeff 322 322    0.05 2.5
    pair_coeff 323 323    0.17 3.25
    pair_coeff 324 324    0.105 3.75
    pair_coeff 325 325    0.17 3.25
    pair_coeff 326 326    0.08 3.5
    pair_coeff 327 327    0.08 3.5
    pair_coeff 328 328    0.08 3.5
    pair_coeff 329 329    0.0 0.0
    pair_coeff 330 330    0.21 2.96
    pair_coeff 331 331    0.0 0.0
    pair_coeff 332 332    0.17 3.25
    pair_coeff 333 333    0.0 0.0
    pair_coeff 334 334    0.0 0.0
    pair_coeff 335 335    0.05 2.5
    pair_coeff 336 336    0.05 2.5
    pair_coeff 337 337    0.08 3.5
    pair_coeff 338 338    0.05 2.5
    pair_coeff 339 339    0.2 3.74
    pair_coeff 340 340    0.21 2.96
    pair_coeff 341 341    0.17 3.0
    pair_coeff 342 342    0.066 3.55
    pair_coeff 343 343    0.08 3.5
    pair_coeff 344 344    0.3 3.4
    pair_coeff 345 345    0.076 3.55
    pair_coeff 346 346    0.71 3.05
    pair_coeff 347 347    0.71 4.02
    pair_coeff 348 348    0.71 4.28
    pair_coeff 349 349    0.71 4.81
    pair_coeff 350 350    0.0005 5.34
    pair_coeff 351 351    0.0005 2.87
    pair_coeff 352 352    0.0005 4.07
    pair_coeff 353 353    0.0005 5.17
    pair_coeff 354 354    0.0005 5.6
    pair_coeff 355 355    0.0005 6.2
    pair_coeff 356 356    0.875044 1.644471
    pair_coeff 357 357    0.449657 2.412031
    pair_coeff 358 358    0.118226 3.102688
    pair_coeff 359 359    0.047096 3.81661
    pair_coeff 360 360    0.3 4.2
    pair_coeff 361 361    0.05 2.5
    pair_coeff 362 362    0.5 4.25
    pair_coeff 363 363    0.3 4.2
    pair_coeff 364 364    0.05 2.5
    pair_coeff 365 365    0.25 3.15
    pair_coeff 366 366    0.3 4.2
    pair_coeff 367 367    0.05 2.5
    pair_coeff 368 368    0.15 3.65
    pair_coeff 369 369    0.25 3.4
    pair_coeff 370 370    0.3 4.2
    pair_coeff 371 371    0.05 2.5
    pair_coeff 372 372    0.25 3.4
    pair_coeff 373 373    0.05 2.5
    pair_coeff 374 374    0.3 4.2
    pair_coeff 375 375    0.05 2.5
    pair_coeff 376 376    0.3 4.2
    pair_coeff 377 377    0.05 2.5
    pair_coeff 378 378    0.0 0.0
    pair_coeff 379 379    0.25 3.2
    pair_coeff 380 380    0.0 0.0
    pair_coeff 381 381    0.4 2.81524
    pair_coeff 382 382    0.2 3.11815
    pair_coeff 383 383    0.14 2.9
    pair_coeff 384 384    0.2 3.74
    pair_coeff 385 385    0.2 3.15
    pair_coeff 386 386    0.14 2.9
    pair_coeff 387 387    0.066 3.5
    pair_coeff 388 388    0.03 2.5
    pair_coeff 389 389    0.2 3.74
    pair_coeff 390 390    0.2 3.15
    pair_coeff 391 391    0.14 2.9
    pair_coeff 392 392    0.066 3.5
    pair_coeff 393 393    0.03 2.5
    pair_coeff 394 394    0.2 3.74
    pair_coeff 395 395    0.2 3.15
    pair_coeff 396 396    0.14 2.9
    pair_coeff 397 397    0.066 3.5
    pair_coeff 398 398    0.03 2.5
    pair_coeff 399 399    0.066 3.5
    pair_coeff 400 400    0.03 2.5
    pair_coeff 401 401    0.07 3.55
    pair_coeff 402 402    0.066 3.5
    pair_coeff 403 403    0.03 2.5
    pair_coeff 404 404    0.07 3.55
    pair_coeff 405 405    0.066 3.5
    pair_coeff 406 406    0.03 2.5
    pair_coeff 407 407    0.07 3.55
    pair_coeff 408 408    0.066 3.5
    pair_coeff 409 409    0.105 3.75
    pair_coeff 410 410    0.21 2.96
    pair_coeff 411 411    0.17 3.0
    pair_coeff 412 412    0.066 3.5
    pair_coeff 413 413    0.015 2.42
    pair_coeff 414 414    0.105 3.75
    pair_coeff 415 415    0.105 3.75
    pair_coeff 416 416    0.07 3.55
    pair_coeff 417 417    0.17 3.0
    pair_coeff 418 418    0.25 3.55
    pair_coeff 419 419    0.17 2.96
    pair_coeff 420 420    0.066 3.5
    pair_coeff 421 421    0.03 2.5
    pair_coeff 422 422    0.17 3.25
    pair_coeff 423 423    0.0 0.0
    pair_coeff 424 424    0.17 3.25
    pair_coeff 425 425    0.0 0.0
    pair_coeff 426 426    0.066 3.5
    pair_coeff 427 427    0.03 2.5
    pair_coeff 428 428    0.066 3.5
    pair_coeff 429 429    0.03 2.5
    pair_coeff 430 430    0.066 3.5
    pair_coeff 431 431    0.03 2.5
    pair_coeff 432 432    0.07 3.55
    pair_coeff 433 433    0.07 3.55
    pair_coeff 434 434    0.066 3.5
    pair_coeff 435 435    0.066 3.5
    pair_coeff 436 436    0.066 3.5
    pair_coeff 437 437    0.25 3.55
    pair_coeff 438 438    0.17 2.96
    pair_coeff 439 439    0.395 3.56
    pair_coeff 440 440    0.395 3.56
    pair_coeff 441 441    0.28 2.93
    pair_coeff 442 442    0.066 3.5
    pair_coeff 443 443    0.066 3.5
    pair_coeff 444 444    0.07 3.55
    pair_coeff 445 445    0.07 3.55
    pair_coeff 446 446    0.07 3.55
    pair_coeff 447 447    0.17 3.25
    pair_coeff 448 448    0.0 0.0
    pair_coeff 449 449    0.066 3.5
    pair_coeff 450 450    0.07 3.55
    pair_coeff 451 451    0.07 3.55
    pair_coeff 452 452    0.07 3.55
    pair_coeff 453 453    0.07 3.55
    pair_coeff 454 454    0.07 3.55
    pair_coeff 455 455    0.17 3.25
    pair_coeff 456 456    0.17 3.25
    pair_coeff 457 457    0.0 0.0
    pair_coeff 458 458    0.07 3.55
    pair_coeff 459 459    0.066 3.5
    pair_coeff 460 460    0.066 3.5
    pair_coeff 461 461    0.076 3.55
    pair_coeff 462 462    0.076 3.55
    pair_coeff 463 463    0.07 3.55
    pair_coeff 464 464    0.17 3.25
    pair_coeff 465 465    0.07 3.55
    pair_coeff 466 466    0.07 3.55
    pair_coeff 467 467    0.07 3.55
    pair_coeff 468 468    0.03 2.42
    pair_coeff 469 469    0.03 2.42
    pair_coeff 470 470    0.03 2.42
    pair_coeff 471 471    0.17 3.25
    pair_coeff 472 472    0.07 3.55
    pair_coeff 473 473    0.03 2.42
    pair_coeff 474 474    0.17 3.25
    pair_coeff 475 475    0.07 3.55
    pair_coeff 476 476    0.07 3.55
    pair_coeff 477 477    0.07 3.55
    pair_coeff 478 478    0.03 2.42
    pair_coeff 479 479    0.03 2.42
    pair_coeff 480 480    0.03 2.42
    pair_coeff 481 481    0.17 3.25
    pair_coeff 482 482    0.07 3.55
    pair_coeff 483 483    0.07 3.55
    pair_coeff 484 484    0.03 2.42
    pair_coeff 485 485    0.03 2.42
    pair_coeff 486 486    0.17 3.25
    pair_coeff 487 487    0.07 3.55
    pair_coeff 488 488    0.07 3.55
    pair_coeff 489 489    0.0 0.0
    pair_coeff 490 490    0.03 2.42
    pair_coeff 491 491    0.03 2.42
    pair_coeff 492 492    0.17 3.25
    pair_coeff 493 493    0.17 3.25
    pair_coeff 494 494    0.07 3.55
    pair_coeff 495 495    0.07 3.55
    pair_coeff 496 496    0.07 3.55
    pair_coeff 497 497    0.0 0.0
    pair_coeff 498 498    0.03 2.42
    pair_coeff 499 499    0.03 2.42
    pair_coeff 500 500    0.03 2.42
    pair_coeff 501 501    0.17 3.25
    pair_coeff 502 502    0.07 3.55
    pair_coeff 503 503    0.17 3.25
    pair_coeff 504 504    0.07 3.55
    pair_coeff 505 505    0.07 3.55
    pair_coeff 506 506    0.0 0.0
    pair_coeff 507 507    0.03 2.42
    pair_coeff 508 508    0.03 2.42
    pair_coeff 509 509    0.03 2.42
    pair_coeff 510 510    0.14 2.9
    pair_coeff 511 511    0.07 3.55
    pair_coeff 512 512    0.076 3.55
    pair_coeff 513 513    0.03 2.42
    pair_coeff 514 514    0.03 2.42
    pair_coeff 515 515    0.14 2.9
    pair_coeff 516 516    0.07 3.55
    pair_coeff 517 517    0.17 3.25
    pair_coeff 518 518    0.07 3.55
    pair_coeff 519 519    0.07 3.55
    pair_coeff 520 520    0.03 2.42
    pair_coeff 521 521    0.03 2.42
    pair_coeff 522 522    0.03 2.42
    pair_coeff 523 523    0.14 2.9
    pair_coeff 524 524    0.17 3.25
    pair_coeff 525 525    0.07 3.55
    pair_coeff 526 526    0.07 3.55
    pair_coeff 527 527    0.07 3.55
    pair_coeff 528 528    0.03 2.42
    pair_coeff 529 529    0.03 2.42
    pair_coeff 530 530    0.03 2.42
    pair_coeff 531 531    0.17 3.25
    pair_coeff 532 532    0.07 3.55
    pair_coeff 533 533    0.07 3.55
    pair_coeff 534 534    0.07 3.55
    pair_coeff 535 535    0.07 3.55
    pair_coeff 536 536    0.07 3.55
    pair_coeff 537 537    0.07 3.55
    pair_coeff 538 538    0.07 3.55
    pair_coeff 539 539    0.07 3.55
    pair_coeff 540 540    0.0 0.0
    pair_coeff 541 541    0.03 2.42
    pair_coeff 542 542    0.03 2.42
    pair_coeff 543 543    0.03 2.42
    pair_coeff 544 544    0.03 2.42
    pair_coeff 545 545    0.03 2.42
    pair_coeff 546 546    0.03 2.42
    pair_coeff 547 547    0.17 3.25
    pair_coeff 548 548    0.07 3.55
    pair_coeff 549 549    0.07 3.55
    pair_coeff 550 550    0.07 3.55
    pair_coeff 551 551    0.07 3.55
    pair_coeff 552 552    0.07 3.55
    pair_coeff 553 553    0.07 3.55
    pair_coeff 554 554    0.07 3.55
    pair_coeff 555 555    0.07 3.55
    pair_coeff 556 556    0.07 3.55
    pair_coeff 557 557    0.03 2.42
    pair_coeff 558 558    0.03 2.42
    pair_coeff 559 559    0.03 2.42
    pair_coeff 560 560    0.03 2.42
    pair_coeff 561 561    0.03 2.42
    pair_coeff 562 562    0.03 2.42
    pair_coeff 563 563    0.03 2.42
    pair_coeff 564 564    0.17 3.25
    pair_coeff 565 565    0.07 3.55
    pair_coeff 566 566    0.17 3.25
    pair_coeff 567 567    0.07 3.55
    pair_coeff 568 568    0.07 3.55
    pair_coeff 569 569    0.07 3.55
    pair_coeff 570 570    0.17 3.25
    pair_coeff 571 571    0.07 3.55
    pair_coeff 572 572    0.17 3.25
    pair_coeff 573 573    0.03 2.42
    pair_coeff 574 574    0.03 2.42
    pair_coeff 575 575    0.03 2.42
    pair_coeff 576 576    0.0 0.0
    pair_coeff 577 577    0.25 3.55
    pair_coeff 578 578    0.07 3.55
    pair_coeff 579 579    0.17 3.25
    pair_coeff 580 580    0.07 3.55
    pair_coeff 581 581    0.07 3.55
    pair_coeff 582 582    0.03 2.42
    pair_coeff 583 583    0.03 2.42
    pair_coeff 584 584    0.03 2.42
    pair_coeff 585 585    0.17 3.25
    pair_coeff 586 586    0.07 3.55
    pair_coeff 587 587    0.03 2.42
    pair_coeff 588 588    0.07 3.55
    pair_coeff 589 589    0.066 3.5
    pair_coeff 590 590    0.17 3.25
    pair_coeff 591 591    0.07 3.55
    pair_coeff 592 592    0.07 3.55
    pair_coeff 593 593    0.07 3.55
    pair_coeff 594 594    0.07 3.55
    pair_coeff 595 595    0.07 3.55
    pair_coeff 596 596    0.07 3.55
    pair_coeff 597 597    0.03 2.42
    pair_coeff 598 598    0.03 2.42
    pair_coeff 599 599    0.03 2.42
    pair_coeff 600 600    0.03 2.42
    pair_coeff 601 601    0.17 3.25
    pair_coeff 602 602    0.07 3.55
    pair_coeff 603 603    0.17 3.25
    pair_coeff 604 604    0.07 3.55
    pair_coeff 605 605    0.07 3.55
    pair_coeff 606 606    0.066 3.5
    pair_coeff 607 607    0.03 2.42
    pair_coeff 608 608    0.03 2.42
    pair_coeff 609 609    0.03 2.42
    pair_coeff 610 610    0.03 2.5
    pair_coeff 611 611    0.066 3.5
    pair_coeff 612 612    0.066 3.5
    pair_coeff 613 613    0.066 3.5
    pair_coeff 614 614    0.066 3.5
    pair_coeff 615 615    0.066 3.5
    pair_coeff 616 616    0.066 3.5
    pair_coeff 617 617    0.066 3.5
    pair_coeff 618 618    0.066 3.5
    pair_coeff 619 619    0.066 3.5
    pair_coeff 620 620    0.066 3.5
    pair_coeff 621 621    0.066 3.5
    pair_coeff 622 622    0.066 3.5
    pair_coeff 623 623    0.066 3.5
    pair_coeff 624 624    0.066 3.5
    pair_coeff 625 625    0.066 3.5
    pair_coeff 626 626    0.25 3.55
    pair_coeff 627 627    0.0 0.0
    pair_coeff 628 628    0.07 3.55
    pair_coeff 629 629    0.105 3.75
    pair_coeff 630 630    0.17 3.25
    pair_coeff 631 631    0.066 3.5
    pair_coeff 632 632    0.066 3.5
    pair_coeff 633 633    0.066 3.5
    pair_coeff 634 634    0.07 3.55
    pair_coeff 635 635    0.07 3.55
    pair_coeff 636 636    0.07 3.55
    pair_coeff 637 637    0.07 3.55
    pair_coeff 638 638    0.07 3.55
    pair_coeff 639 639    0.07 3.55
    pair_coeff 640 640    0.25 3.55
    pair_coeff 641 641    0.054 3.473
    pair_coeff 642 642    0.05 3.3
    pair_coeff 643 643    0.05 3.3
    pair_coeff 644 644    0.076 3.55
    pair_coeff 645 645    0.066 3.5
    pair_coeff 646 646    0.03 2.5
    pair_coeff 647 647    0.06 3.75
    pair_coeff 648 648    0.054 3.473
    pair_coeff 649 649    0.05 3.3
    pair_coeff 650 650    0.05 3.3
    pair_coeff 651 651    0.04 2.95
    pair_coeff 652 652    0.076 3.55
    pair_coeff 653 653    0.3 3.4
    pair_coeff 654 654    0.03 2.42
    pair_coeff 655 655    0.066 3.5
    pair_coeff 656 656    0.066 3.5
    pair_coeff 657 657    0.066 3.5
    pair_coeff 658 658    0.07 3.55
    pair_coeff 659 659    0.03 2.42
    pair_coeff 660 660    0.07 3.55
    pair_coeff 661 661    0.03 2.42
    pair_coeff 662 662    0.07 3.55
    pair_coeff 663 663    0.061 2.85
    pair_coeff 664 664    0.07 3.55
    pair_coeff 665 665    0.061 2.85
    pair_coeff 666 666    0.47 3.47
    pair_coeff 667 667    0.118 3.905
    pair_coeff 668 668    0.07 3.55
    pair_coeff 669 669    0.062 3.25
    pair_coeff 670 670    0.061 2.94
    pair_coeff 671 671    0.07 3.55
    pair_coeff 672 672    0.061 2.85
    pair_coeff 673 673    0.07 3.55
    pair_coeff 674 674    0.47 3.47
    pair_coeff 675 675    0.07 3.55
    pair_coeff 676 676    0.6 3.75
    pair_coeff 677 677    0.066 3.5
    pair_coeff 678 678    0.25 3.55
    pair_coeff 679 679    0.07 3.55
    pair_coeff 680 680    0.07 3.55
    pair_coeff 681 681    0.07 3.55
    pair_coeff 682 682    0.07 3.55
    pair_coeff 683 683    0.07 3.55
    pair_coeff 684 684    0.03 2.42
    pair_coeff 685 685    0.03 2.42
    pair_coeff 686 686    0.05 3.55
    pair_coeff 687 687    0.17 3.25
    pair_coeff 688 688    0.0 0.0
    pair_coeff 689 689    0.0 0.0
    pair_coeff 690 690    0.03 2.42
    pair_coeff 691 691    0.066 3.5
    pair_coeff 692 692    0.066 3.5
    pair_coeff 693 693    0.17 3.25
    pair_coeff 694 694    0.17 3.25
    pair_coeff 695 695    0.17 3.25
    pair_coeff 696 696    0.05 3.55
    pair_coeff 697 697    0.17 3.2
    pair_coeff 698 698    0.066 3.3
    pair_coeff 699 699    0.066 3.3
    pair_coeff 700 700    0.066 3.3
    pair_coeff 701 701    0.066 3.3
    pair_coeff 702 702    0.066 3.3
    pair_coeff 703 703    0.015 2.5
    pair_coeff 704 704    0.12 3.25
    pair_coeff 705 705    0.17 2.96
    pair_coeff 706 706    0.066 3.5
    pair_coeff 707 707    0.015 2.5
    pair_coeff 708 708    0.066 3.5
    pair_coeff 709 709    0.066 3.5
    pair_coeff 710 710    0.066 3.5
    pair_coeff 711 711    0.12 3.25
    pair_coeff 712 712    0.07 3.55
    pair_coeff 713 713    0.066 3.3
    pair_coeff 714 714    0.17 3.25
    pair_coeff 715 715    0.21 2.96
    pair_coeff 716 716    0.105 3.75
    pair_coeff 717 717    0.17 3.0
    pair_coeff 718 718    0.066 3.5
    pair_coeff 719 719    0.066 3.5
    pair_coeff 720 720    0.066 3.5
    pair_coeff 721 721    0.015 2.42
    pair_coeff 722 722    0.015 2.42
    pair_coeff 723 723    0.015 2.42
    pair_coeff 724 724    0.14 2.9
    pair_coeff 725 725    0.2 3.74
    pair_coeff 726 726    0.066 3.5
    pair_coeff 727 727    0.066 3.5
    pair_coeff 728 728    0.03 2.5
    pair_coeff 729 729    0.2 3.74
    pair_coeff 730 730    0.061 3.1181
    pair_coeff 731 731    0.17 3.15
    pair_coeff 732 732    0.21 2.86
    pair_coeff 733 733    0.17 3.3
    pair_coeff 734 734    0.17 3.3
    pair_coeff 735 735    0.17 3.3
    pair_coeff 736 736    0.066 3.5
    pair_coeff 737 737    0.066 3.5
    pair_coeff 738 738    0.066 3.5
    pair_coeff 739 739    0.066 3.5
    pair_coeff 740 740    0.066 3.5
    pair_coeff 741 741    0.066 3.5
    pair_coeff 742 742    0.0 0.0
    pair_coeff 743 743    0.0 0.0
    pair_coeff 744 744    0.015 2.5
    pair_coeff 745 745    0.066 3.5
    pair_coeff 746 746    0.066 3.5
    pair_coeff 747 747    0.066 3.5
    pair_coeff 748 748    0.066 3.5
    pair_coeff 749 749    0.07 3.55
    pair_coeff 750 750    0.07 3.55
    pair_coeff 751 751    0.07 3.55
    pair_coeff 752 752    0.066 3.5
    pair_coeff 753 753    0.066 3.5
    pair_coeff 754 754    0.066 3.5
    pair_coeff 755 755    0.066 3.5
    pair_coeff 756 756    0.066 3.5
    pair_coeff 757 757    0.066 3.5
    pair_coeff 758 758    0.086 3.3
    pair_coeff 759 759    0.015 2.42
    pair_coeff 760 760    0.21 3.3
    pair_coeff 761 761    0.135 3.3
    pair_coeff 762 762    0.1 3.3
    pair_coeff 763 763    0.015 2.5
    pair_coeff 764 764    0.066 3.5
    pair_coeff 765 765    0.066 3.5
    pair_coeff 766 766    0.066 3.5
    pair_coeff 767 767    0.17 3.12
    pair_coeff 768 768    0.0 0.0
    pair_coeff 769 769    0.17 3.25
    pair_coeff 770 770    0.17 3.25
    pair_coeff 771 771    0.17 3.25
    pair_coeff 772 772    0.21 3.3
    pair_coeff 773 773    0.17 3.25
    pair_coeff 774 774    0.0 0.0
    pair_coeff 775 775    0.066 3.5
    pair_coeff 776 776    0.066 3.5
    pair_coeff 777 777    0.066 3.5
    pair_coeff 778 778    0.066 3.5
    pair_coeff 779 779    0.07 3.55
    pair_coeff 780 780    0.076 3.55
    pair_coeff 781 781    0.07 3.55
    pair_coeff 782 782    0.07 3.55
    pair_coeff 783 783    0.03 2.5
    pair_coeff 784 784    0.066 3.5
    pair_coeff 785 785    0.105 3.75
    pair_coeff 786 786    0.17 3.25
    pair_coeff 787 787    0.21 2.96
    pair_coeff 788 788    0.0 0.0
    pair_coeff 789 789    0.061 2.94
    pair_coeff 790 790    0.066 3.5
    pair_coeff 791 791    0.03 2.5
    pair_coeff 792 792    0.066 3.5
    pair_coeff 793 793    0.066 3.5
    pair_coeff 794 794    0.066 3.5
    pair_coeff 795 795    0.066 3.5
    pair_coeff 796 796    0.066 3.5
    pair_coeff 797 797    0.097 3.5
    pair_coeff 798 798    0.053 2.95
    pair_coeff 799 799    0.062 3.25
    pair_coeff 800 800    0.03 2.5
    pair_coeff 801 801    0.066 3.5
    pair_coeff 802 802    0.066 3.5
    pair_coeff 803 803    0.3 3.4
    pair_coeff 804 804    0.066 3.5
    pair_coeff 805 805    0.03 2.5
    pair_coeff 806 806    0.066 3.5
    pair_coeff 807 807    0.066 3.5
    pair_coeff 808 808    0.47 3.47
    pair_coeff 809 809    0.066 3.5
    pair_coeff 810 810    0.03 2.5
    pair_coeff 811 811    0.066 3.5
    pair_coeff 812 812    0.066 3.5
    pair_coeff 813 813    0.061 2.94
    pair_coeff 814 814    0.3 3.4
    pair_coeff 815 815    0.47 3.47
    pair_coeff 816 816    0.07 3.55
    pair_coeff 817 817    0.14 2.9
    pair_coeff 818 818    0.066 3.5
    pair_coeff 819 819    0.06 2.9
    pair_coeff 820 820    0.17 3.25
    pair_coeff 821 821    0.07 3.55
    pair_coeff 822 822    0.066 3.5
    pair_coeff 823 823    0.105 3.75
    pair_coeff 824 824    0.105 3.75
    pair_coeff 825 825    0.21 2.96
    pair_coeff 826 826    0.17 3.25
    pair_coeff 827 827    0.0 0.0
    pair_coeff 828 828    0.17 3.12
    pair_coeff 829 829    0.0 0.0
    pair_coeff 830 830    0.066 3.5
    pair_coeff 831 831    0.066 3.5
    pair_coeff 832 832    0.07 3.55
    pair_coeff 833 833    0.07 3.55
    pair_coeff 834 834    0.07 3.55
    pair_coeff 835 835    0.07 3.55
    pair_coeff 836 836    0.07 3.55
    pair_coeff 837 837    0.0125 1.96
    pair_coeff 838 838    0.066 3.5
    pair_coeff 839 839    0.066 3.5
    pair_coeff 840 840    0.066 3.5
    pair_coeff 841 841    0.6 3.75
    pair_coeff 842 842    0.03 2.5
    pair_coeff 843 843    0.17 3.25
    pair_coeff 844 844    0.07 3.55
    pair_coeff 845 845    0.07 3.55
    pair_coeff 846 846    0.17 3.25
    pair_coeff 847 847    0.07 3.55
    pair_coeff 848 848    0.105 3.75
    pair_coeff 849 849    0.21 2.96
    pair_coeff 850 850    0.17 3.25
    pair_coeff 851 851    0.066 3.5
    pair_coeff 852 852    0.066 3.5
    pair_coeff 853 853    0.066 3.5
    pair_coeff 854 854    0.066 3.5
    pair_coeff 855 855    0.015 2.42
    pair_coeff 856 856    0.105 3.75
    pair_coeff 857 857    0.21 2.96
    pair_coeff 858 858    0.015 2.42
    pair_coeff 859 859    0.066 3.5
    pair_coeff 860 860    0.066 3.5
    pair_coeff 861 861    0.066 3.5
    pair_coeff 862 862    0.066 3.5
    pair_coeff 863 863    0.066 3.5
    pair_coeff 864 864    0.066 3.5
    pair_coeff 865 865    0.066 3.5
    pair_coeff 866 866    0.066 3.5
    pair_coeff 867 867    0.066 3.5
    pair_coeff 868 868    0.066 3.5
    pair_coeff 869 869    0.1 4.0
    pair_coeff 870 870    0.1 4.0
    pair_coeff 871 871    0.1 4.0
    pair_coeff 872 872    0.1 4.0
    pair_coeff 873 873    0.03 2.5
    pair_coeff 874 874    0.066 3.5
    pair_coeff 875 875    0.066 3.5
    pair_coeff 876 876    0.066 3.5
    pair_coeff 877 877    0.066 3.5
    pair_coeff 878 878    0.72 3.08
    pair_coeff 879 879    0.11779 4.18
    pair_coeff 880 880    0.09 4.51
    pair_coeff 881 881    0.07 5.15
    pair_coeff 882 882    0.018279 2.7
    pair_coeff 883 883    0.002772 3.35
    pair_coeff 884 884    0.000328 4.06
    pair_coeff 885 885    0.000171 4.32
    pair_coeff 886 886    8.1e-05 4.82
    pair_coeff 887 887    0.875044 2.91
    pair_coeff 888 888    0.449657 3.47
    pair_coeff 889 889    0.118226 3.82
    pair_coeff 890 890    0.047096 4.18
    pair_coeff 891 891    0.066 3.5
    pair_coeff 892 892    0.066 3.5
    pair_coeff 893 893    0.066 3.5
    pair_coeff 894 894    0.066 3.5
    pair_coeff 895 895    0.03 2.5
    pair_coeff 896 896    0.17 3.25
    pair_coeff 897 897    0.07 3.55
    pair_coeff 898 898    0.17 3.25
    pair_coeff 899 899    0.07 3.55
    pair_coeff 900 900    0.076 3.55
    pair_coeff 901 901    0.076 3.55
    pair_coeff 902 902    0.03 2.42
    pair_coeff 903 903    0.086 3.3
    pair_coeff 904 904    0.086 3.3
    pair_coeff 905 905    0.086 3.3
    pair_coeff 906 906    0.086 3.3
    pair_coeff 907 907    0.086 3.3
    pair_coeff 908 908    0.21 2.96
    pair_coeff 909 909    0.066 3.5
    bond_coeff 3    367.0 1.38
    bond_coeff 4    420.0 1.357
    bond_coeff 5    367.0 1.36
    bond_coeff 6    450.0 1.279
    bond_coeff 7    300.0 0.3
    bond_coeff 8    420.0 1.34
    bond_coeff 9    420.0 1.354
    bond_coeff 10    420.0 1.354
    bond_coeff 11    420.0 1.354
    bond_coeff 12    420.0 1.354
    bond_coeff 13    420.0 1.354
    bond_coeff 14    420.0 1.354
    bond_coeff 15    461.0 1.57
    bond_coeff 16    260.0 1.526
    bond_coeff 17    317.0 1.522
    bond_coeff 18    386.0 1.425
    bond_coeff 19    260.0 1.526
    bond_coeff 20    260.0 1.526
    bond_coeff 21    317.0 1.5
    bond_coeff 22    317.0 1.51
    bond_coeff 23    260.0 1.526
    bond_coeff 24    317.0 1.5
    bond_coeff 25    222.0 1.81
    bond_coeff 26    222.0 1.81
    bond_coeff 27    320.0 1.425
    bond_coeff 28    337.0 1.449
    bond_coeff 29    382.0 1.448
    bond_coeff 30    317.0 1.51
    bond_coeff 31    260.0 1.526
    bond_coeff 32    367.0 1.471
    bond_coeff 33    337.0 1.463
    bond_coeff 34    317.0 1.495
    bond_coeff 35    350.0 1.51
    bond_coeff 36    570.0 1.229
    bond_coeff 37    450.0 1.364
    bond_coeff 38    317.0 1.522
    bond_coeff 39    317.0 1.522
    bond_coeff 40    469.0 1.4
    bond_coeff 41    317.0 1.522
    bond_coeff 42    400.0 1.444
    bond_coeff 43    214.0 1.327
    bond_coeff 44    300.0 1.79
    bond_coeff 45    490.0 1.335
    bond_coeff 46    317.0 1.522
    bond_coeff 47    340.0 1.09
    bond_coeff 48    410.0 1.444
    bond_coeff 49    400.0 1.49
    bond_coeff 50    385.0 1.46
    bond_coeff 51    656.0 1.25
    bond_coeff 52    457.0 1.358
    bond_coeff 53    418.0 1.388
    bond_coeff 54    447.0 1.419
    bond_coeff 55    300.0 1.98
    bond_coeff 56    400.0 1.49
    bond_coeff 57    385.0 1.46
    bond_coeff 58    424.0 1.383
    bond_coeff 59    490.0 1.335
    bond_coeff 60    553.0 0.3
    bond_coeff 61    525.0 1.48
    bond_coeff 62    570.0 1.229
    bond_coeff 63    700.0 1.171
    bond_coeff 64    386.0 1.425
    bond_coeff 65    553.0 0.945
    bond_coeff 66    386.0 1.425
    bond_coeff 67    320.0 1.41
    bond_coeff 68    250.0 1.47
    bond_coeff 69    400.0 1.38
    bond_coeff 70    340.0 0.3
    bond_coeff 71    320.0 1.45
    bond_coeff 72    450.0 1.37
    bond_coeff 73    450.0 1.364
    bond_coeff 74    320.0 1.38
    bond_coeff 75    230.0 1.61
    bond_coeff 76    450.0 1.67
    bond_coeff 77    94.0 1.8
    bond_coeff 78    374.0 1.64
    bond_coeff 79    260.0 1.526
    bond_coeff 80    260.0 1.526
    bond_coeff 81    317.0 1.5
    bond_coeff 82    260.0 1.526
    bond_coeff 83    317.0 1.5
    bond_coeff 84    222.0 1.81
    bond_coeff 85    222.0 1.81
    bond_coeff 86    320.0 1.425
    bond_coeff 87    337.0 1.449
    bond_coeff 88    382.0 1.448
    bond_coeff 89    317.0 1.51
    bond_coeff 90    260.0 1.526
    bond_coeff 91    367.0 1.471
    bond_coeff 92    337.0 1.463
    bond_coeff 93    222.0 1.81
    bond_coeff 94    337.0 1.475
    bond_coeff 95    553.0 0.945
    bond_coeff 96    340.0 0.1
    bond_coeff 97    530.0 1.34
    bond_coeff 98    530.0 1.34
    bond_coeff 99    530.0 1.34
    bond_coeff 100    260.0 1.526
    bond_coeff 101    317.0 1.5
    bond_coeff 102    317.0 1.5
    bond_coeff 103    320.0 1.425
    bond_coeff 104    337.0 1.449
    bond_coeff 105    382.0 1.448
    bond_coeff 106    337.0 1.475
    bond_coeff 107    530.0 1.34
    bond_coeff 108    317.0 1.5
    bond_coeff 109    530.0 1.34
    bond_coeff 110    222.0 1.76
    bond_coeff 111    469.0 1.4
    bond_coeff 112    469.0 1.4
    bond_coeff 113    469.0 1.4
    bond_coeff 114    469.0 1.4
    bond_coeff 115    268.0 1.529
    bond_coeff 116    317.0 1.5
    bond_coeff 117    222.0 1.81
    bond_coeff 118    222.0 1.81
    bond_coeff 119    390.0 1.43
    bond_coeff 120    390.0 1.47
    bond_coeff 121    320.0 1.41
    bond_coeff 122    245.0 1.781
    bond_coeff 123    340.0 1.79
    bond_coeff 124    337.0 1.449
    bond_coeff 125    340.0 0.3
    bond_coeff 126    382.0 1.448
    bond_coeff 127    340.0 1.09
    bond_coeff 128    317.0 1.51
    bond_coeff 129    317.0 1.51
    bond_coeff 130    317.0 1.51
    bond_coeff 131    268.0 1.529
    bond_coeff 132    367.0 1.471
    bond_coeff 133    337.0 1.463
    bond_coeff 134    337.0 1.449
    bond_coeff 135    337.0 1.475
    bond_coeff 136    317.0 1.51
    bond_coeff 137    212.0 1.843
    bond_coeff 138    245.0 1.945
    bond_coeff 139    200.0 2.19
    bond_coeff 140    340.0 1.77
    bond_coeff 141    317.0 1.495
    bond_coeff 142    317.0 1.504
    bond_coeff 143    317.0 1.504
    bond_coeff 144    317.0 1.504
    bond_coeff 145    317.0 1.495
    bond_coeff 146    337.0 1.449
    bond_coeff 147    280.0 1.51
    bond_coeff 148    532.8 1.46
    bond_coeff 149    382.0 1.448
    bond_coeff 150    375.0 1.49
    bond_coeff 151    212.0 1.82
    bond_coeff 152    337.0 1.475
    bond_coeff 153    337.0 1.449
    bond_coeff 154    187.0 1.86
    bond_coeff 155    317.0 1.51
    bond_coeff 156    530.0 1.34
    bond_coeff 157    274.0 1.336
    bond_coeff 158    250.0 1.74
    bond_coeff 159    166.0 2.038
    bond_coeff 160    300.0 1.685
    bond_coeff 161    250.0 1.73
    bond_coeff 162    340.0 0.5
    bond_coeff 163    250.0 1.76
    bond_coeff 164    250.0 1.76
    bond_coeff 165    250.0 1.73
    bond_coeff 166    250.0 1.76
    bond_coeff 167    250.0 1.74
    bond_coeff 168    222.0 1.81
    bond_coeff 169    144.0 2.15
    bond_coeff 170    340.0 0.1
    bond_coeff 171    550.0 1.12
    bond_coeff 172    650.0 1.157
    bond_coeff 173    400.0 1.41
    bond_coeff 174    550.0 1.24
    bond_coeff 175    1150.0 1.21
    bond_coeff 176    330.0 1.637
    bond_coeff 177    420.0 1.08
    bond_coeff 178    400.0 1.426
    bond_coeff 179    400.0 1.451
    bond_coeff 180    400.0 1.426
    bond_coeff 181    330.0 1.784
    bond_coeff 182    400.0 1.451
    bond_coeff 183    400.0 1.451
    bond_coeff 184    250.0 1.47
    bond_coeff 185    200.0 1.69
    bond_coeff 186    320.0 1.45
    bond_coeff 187    340.0 0.3
    bond_coeff 188    320.0 1.45
    bond_coeff 189    450.0 1.37
    bond_coeff 190    450.0 1.364
    bond_coeff 191    320.0 1.38
    bond_coeff 192    340.0 1.36
    bond_coeff 193    462.0 1.399
    bond_coeff 194    230.0 1.61
    bond_coeff 195    462.0 1.357
    bond_coeff 196    340.0 1.36
    bond_coeff 197    374.0 1.64
    bond_coeff 198    300.0 0.3
    bond_coeff 199    300.0 1.725
    bond_coeff 200    300.0 1.725
    bond_coeff 201    300.0 1.725
    bond_coeff 202    300.0 1.725
    bond_coeff 203    300.0 1.725
    bond_coeff 204    300.0 1.725
    bond_coeff 205    300.0 1.725
    bond_coeff 206    223.0 2.02
    bond_coeff 207    700.0 1.53
    bond_coeff 208    340.0 0.5
    bond_coeff 209    340.0 0.3
    bond_coeff 210    700.0 1.44
    bond_coeff 211    367.0 0.3
    bond_coeff 212    434.0 1.01
    bond_coeff 213    427.0 1.381
    bond_coeff 214    427.0 1.381
    bond_coeff 215    434.0 1.67
    bond_coeff 216    427.0 1.381
    bond_coeff 217    427.0 1.381
    bond_coeff 218    337.0 1.449
    bond_coeff 219    500.0 1.27
    bond_coeff 220    40.0 2.05
    bond_coeff 221    340.0 0.3
    bond_coeff 222    340.0 0.3
    bond_coeff 223    340.0 0.1
    bond_coeff 224    340.0 0.3
    bond_coeff 225    340.0 0.3
    bond_coeff 226    367.0 0.3
    bond_coeff 227    340.0 0.3
    bond_coeff 228    340.0 0.3
    bond_coeff 229    367.0 0.3
    bond_coeff 230    367.0 0.3
    bond_coeff 231    300.0 0.3
    bond_coeff 232    340.0 0.1
    bond_coeff 233    600.0 0.9572
    bond_coeff 234    900.0 0.15
    bond_coeff 235    40.0 2.05
    bond_coeff 236    529.6 0.9572
    bond_coeff 237    600.0 0.9572
    bond_coeff 238    900.0 0.175
    bond_coeff 239    600.0 0.9572
    bond_coeff 240    900.0 0.7
    bond_coeff 241    600.0 1.0
    bond_coeff 242    350.0 1.445
    bond_coeff 243    434.0 1.01
    bond_coeff 244    481.0 1.34
    bond_coeff 245    340.0 1.77
    bond_coeff 246    382.0 1.448
    bond_coeff 247    266.0 1.74
    bond_coeff 248    434.0 1.01
    bond_coeff 249    434.0 1.01
    bond_coeff 250    434.0 1.01
    bond_coeff 251    434.0 1.01
    bond_coeff 252    434.0 1.01
    bond_coeff 253    434.0 1.01
    bond_coeff 254    166.0 1.48
    bond_coeff 255    340.0 1.08
    bond_coeff 256    340.0 1.08
    bond_coeff 257    340.0 1.09
    bond_coeff 258    340.0 1.08
    bond_coeff 259    340.0 1.088
    bond_coeff 260    532.8 1.084
    bond_coeff 261    166.0 1.48
    bond_coeff 262    340.0 1.08
    bond_coeff 263    549.0 1.34
    bond_coeff 264    427.0 1.433
    bond_coeff 265    549.0 1.34
    bond_coeff 266    448.0 1.365
    bond_coeff 267    367.0 1.08
    bond_coeff 268    300.0 1.9
    bond_coeff 269    250.0 2.08
    bond_coeff 270    385.0 1.46
    bond_coeff 271    317.0 1.51
    bond_coeff 272    448.0 1.365
    bond_coeff 273    700.0 1.305
    bond_coeff 274    469.0 1.4
    bond_coeff 275    367.0 1.08
    bond_coeff 276    427.0 1.433
    bond_coeff 277    400.0 1.45
    bond_coeff 278    481.0 1.34
    bond_coeff 279    483.0 1.339
    bond_coeff 280    427.0 1.381
    bond_coeff 281    469.0 1.404
    bond_coeff 282    414.0 1.391
    bond_coeff 283    220.0 1.78
    bond_coeff 284    300.0 1.87
    bond_coeff 285    250.0 2.08
    bond_coeff 286    340.0 1.77
    bond_coeff 287    469.0 1.4
    bond_coeff 288    546.0 1.367
    bond_coeff 289    469.0 1.4
    bond_coeff 290    469.0 1.421
    bond_coeff 291    317.0 1.49
    bond_coeff 292    382.0 1.385
    bond_coeff 293    400.0 1.46
    bond_coeff 294    427.0 1.433
    bond_coeff 295    367.0 1.08
    bond_coeff 296    340.0 1.08
    bond_coeff 297    367.0 1.08
    bond_coeff 298    367.0 1.08
    bond_coeff 299    367.0 1.08
    bond_coeff 300    367.0 1.08
    bond_coeff 301    367.0 1.08
    bond_coeff 302    367.0 1.08
    bond_coeff 303    385.0 1.46
    bond_coeff 304    457.0 1.29
    bond_coeff 305    549.0 1.365
    bond_coeff 306    385.0 1.46
    bond_coeff 307    337.0 1.475
    bond_coeff 308    525.0 1.48
    bond_coeff 309    434.0 1.01
    bond_coeff 310    434.0 1.01
    bond_coeff 311    481.0 1.34
    bond_coeff 312    481.0 1.34
    bond_coeff 313    500.0 1.32
    bond_coeff 314    502.0 1.324
    bond_coeff 315    461.0 1.354
    bond_coeff 316    461.0 1.354
    bond_coeff 317    483.0 1.339
    bond_coeff 318    550.0 1.21
    bond_coeff 319    457.0 1.29
    bond_coeff 320    436.0 1.374
    bond_coeff 321    400.0 1.349
    bond_coeff 322    440.0 1.371
    bond_coeff 323    428.0 1.38
    bond_coeff 324    477.0 1.343
    bond_coeff 325    427.0 1.381
    bond_coeff 326    427.0 1.381
    bond_coeff 327    385.0 1.44
    bond_coeff 328    367.0 1.08
    bond_coeff 329    367.0 1.08
    bond_coeff 330    367.0 1.08
    bond_coeff 331    520.0 1.37
    bond_coeff 332    414.0 1.391
    bond_coeff 333    388.0 1.459
    bond_coeff 334    447.0 1.419
    bond_coeff 335    469.0 1.424
    bond_coeff 336    436.0 1.374
    bond_coeff 337    400.0 1.28
    bond_coeff 338    529.0 1.304
    bond_coeff 339    488.0 1.335
    bond_coeff 340    410.0 1.394
    bond_coeff 341    410.0 1.394
    bond_coeff 342    410.0 1.32
    bond_coeff 343    367.0 1.08
    bond_coeff 344    440.0 1.371
    bond_coeff 345    367.0 1.08
    bond_coeff 346    108.0 2.25
    bond_coeff 347    300.0 1.87
    bond_coeff 348    300.0 1.87
    bond_coeff 349    300.0 1.87
    bond_coeff 350    300.0 1.87
    bond_coeff 351    300.0 1.87
    bond_coeff 352    151.0 2.19
    bond_coeff 353    250.0 2.08
    bond_coeff 354    250.0 2.08
    bond_coeff 355    250.0 2.08
    bond_coeff 356    250.0 2.08
    bond_coeff 357    250.0 2.08
    bond_coeff 358    108.0 2.44
    bond_coeff 359    500.0 1.8
    bond_coeff 360    546.0 1.352
    bond_coeff 361    385.0 1.46
    bond_coeff 362    520.0 1.37
    bond_coeff 363    520.0 1.37
    bond_coeff 364    385.0 1.46
    bond_coeff 365    512.0 1.375
    bond_coeff 366    385.0 1.46
    bond_coeff 367    546.0 1.367
    bond_coeff 368    520.0 1.37
    bond_coeff 369    520.0 1.37
    bond_coeff 370    385.0 1.46
    bond_coeff 371    385.0 1.46
    bond_coeff 372    385.0 1.46
    bond_coeff 373    469.0 1.424
    bond_coeff 374    469.0 1.424
    bond_coeff 375    490.0 1.335
    bond_coeff 376    317.0 1.522
    bond_coeff 377    337.0 1.449
    bond_coeff 378    260.0 1.52
    bond_coeff 379    550.0 1.225
    bond_coeff 380    94.0 2.32
    bond_coeff 381    549.0 1.345
    angle_coeff 2    33.0 109.47
    angle_coeff 3    50.0 109.5
    angle_coeff 4    63.0 112.4
    angle_coeff 5    63.0 112.4
    angle_coeff 6    80.0 109.5
    angle_coeff 7    63.0 112.4
    angle_coeff 8    63.0 112.4
    angle_coeff 9    80.0 109.5
    angle_coeff 10    63.0 112.4
    angle_coeff 11    63.0 112.4
    angle_coeff 12    63.0 112.4
    angle_coeff 13    63.0 112.4
    angle_coeff 14    80.0 109.5
    angle_coeff 15    63.0 114.0
    angle_coeff 16    63.0 112.4
    angle_coeff 17    50.0 108.6
    angle_coeff 18    50.0 114.7
    angle_coeff 19    50.0 114.7
    angle_coeff 20    80.0 109.5
    angle_coeff 21    80.0 109.5
    angle_coeff 22    80.0 109.5
    angle_coeff 23    80.0 110.3
    angle_coeff 24    80.0 111.2
    angle_coeff 25    56.2 109.47
    angle_coeff 26    56.2 109.47
    angle_coeff 27    56.2 109.47
    angle_coeff 28    56.2 109.47
    angle_coeff 29    80.0 111.2
    angle_coeff 30    63.0 112.4
    angle_coeff 31    63.0 114.0
    angle_coeff 32    63.0 112.4
    angle_coeff 33    63.0 112.4
    angle_coeff 34    80.0 111.2
    angle_coeff 35    80.0 111.2
    angle_coeff 36    63.0 115.6
    angle_coeff 37    80.0 120.4
    angle_coeff 38    80.0 121.0
    angle_coeff 39    80.0 121.4
    angle_coeff 40    80.0 126.0
    angle_coeff 41    80.0 121.0
    angle_coeff 42    80.0 120.4
    angle_coeff 43    70.0 115.0
    angle_coeff 44    80.0 120.4
    angle_coeff 45    70.0 120.0
    angle_coeff 46    85.0 120.0
    angle_coeff 47    70.0 108.0
    angle_coeff 48    70.0 116.0
    angle_coeff 49    80.0 111.0
    angle_coeff 50    80.0 117.2
    angle_coeff 51    80.0 120.4
    angle_coeff 52    81.0 111.4
    angle_coeff 53    81.0 111.4
    angle_coeff 54    83.0 123.4
    angle_coeff 55    75.0 109.0
    angle_coeff 56    75.0 119.0
    angle_coeff 57    70.0 114.2
    angle_coeff 58    70.0 116.6
    angle_coeff 59    70.0 116.6
    angle_coeff 60    70.0 116.6
    angle_coeff 61    70.0 116.6
    angle_coeff 62    70.0 116.6
    angle_coeff 63    80.0 122.9
    angle_coeff 64    81.0 111.4
    angle_coeff 65    70.0 116.0
    angle_coeff 66    80.0 120.4
    angle_coeff 67    35.0 115.0
    angle_coeff 68    35.0 115.0
    angle_coeff 69    35.0 123.0
    angle_coeff 70    40.0 114.0
    angle_coeff 71    40.0 115.0
    angle_coeff 72    40.0 115.0
    angle_coeff 73    70.0 115.5
    angle_coeff 74    80.0 125.3
    angle_coeff 75    35.0 115.0
    angle_coeff 76    70.0 115.5
    angle_coeff 77    70.0 116.0
    angle_coeff 78    70.0 120.0
    angle_coeff 79    80.0 120.4
    angle_coeff 80    81.0 111.4
    angle_coeff 81    85.0 120.0
    angle_coeff 82    70.0 116.0
    angle_coeff 83    80.0 116.0
    angle_coeff 84    80.0 124.0
    angle_coeff 85    65.0 117.0
    angle_coeff 86    70.0 117.0
    angle_coeff 87    70.0 117.0
    angle_coeff 88    70.0 117.0
    angle_coeff 89    70.0 117.0
    angle_coeff 90    80.0 126.0
    angle_coeff 91    80.0 126.0
    angle_coeff 92    35.0 122.0
    angle_coeff 93    80.0 122.5
    angle_coeff 94    70.0 114.1
    angle_coeff 95    70.0 118.6
    angle_coeff 96    70.0 118.6
    angle_coeff 97    80.0 120.6
    angle_coeff 98    70.0 111.3
    angle_coeff 99    70.0 111.3
    angle_coeff 100    80.0 128.8
    angle_coeff 101    75.0 109.0
    angle_coeff 102    75.0 119.0
    angle_coeff 103    70.0 116.0
    angle_coeff 104    80.0 120.4
    angle_coeff 105    80.0 128.2
    angle_coeff 106    70.0 115.4
    angle_coeff 107    70.0 118.6
    angle_coeff 108    80.0 120.9
    angle_coeff 109    70.0 116.6
    angle_coeff 110    80.0 122.9
    angle_coeff 111    10.0 117.0
    angle_coeff 112    35.0 113.0
    angle_coeff 113    35.0 113.0
    angle_coeff 114    55.0 108.5
    angle_coeff 115    55.0 108.5
    angle_coeff 116    55.0 108.5
    angle_coeff 117    55.0 108.5
    angle_coeff 118    49.0 105.4
    angle_coeff 119    5.0 109.47
    angle_coeff 120    10.0 109.47
    angle_coeff 121    10.0 109.47
    angle_coeff 122    35.0 109.0
    angle_coeff 123    10.0 109.47
    angle_coeff 124    35.0 113.0
    angle_coeff 125    55.0 108.5
    angle_coeff 126    55.0 108.5
    angle_coeff 127    100.0 120.5
    angle_coeff 128    74.0 110.0
    angle_coeff 129    100.0 126.0
    angle_coeff 130    10.0 109.47
    angle_coeff 131    33.0 109.47
    angle_coeff 132    63.0 112.4
    angle_coeff 133    63.0 111.1
    angle_coeff 134    80.0 109.5
    angle_coeff 135    63.0 111.1
    angle_coeff 136    63.0 111.5
    angle_coeff 137    63.0 112.4
    angle_coeff 138    80.0 109.5
    angle_coeff 139    63.0 111.1
    angle_coeff 140    63.0 111.5
    angle_coeff 141    63.0 111.5
    angle_coeff 142    63.0 111.5
    angle_coeff 143    80.0 109.5
    angle_coeff 144    80.0 109.5
    angle_coeff 145    80.0 109.5
    angle_coeff 146    80.0 109.5
    angle_coeff 147    63.0 110.1
    angle_coeff 148    80.0 109.5
    angle_coeff 149    80.0 109.7
    angle_coeff 150    80.0 109.7
    angle_coeff 151    56.2 109.47
    angle_coeff 152    56.2 109.47
    angle_coeff 153    56.2 109.47
    angle_coeff 154    56.2 109.47
    angle_coeff 155    80.0 109.7
    angle_coeff 156    63.0 112.4
    angle_coeff 157    80.0 109.5
    angle_coeff 158    80.0 109.5
    angle_coeff 159    80.0 109.5
    angle_coeff 160    80.0 109.5
    angle_coeff 161    70.0 124.0
    angle_coeff 162    70.0 124.0
    angle_coeff 163    70.0 124.0
    angle_coeff 164    70.0 118.0
    angle_coeff 165    70.0 118.0
    angle_coeff 166    70.0 118.0
    angle_coeff 167    70.0 124.0
    angle_coeff 168    70.0 124.0
    angle_coeff 169    70.0 124.0
    angle_coeff 170    70.0 118.0
    angle_coeff 171    70.0 118.0
    angle_coeff 172    70.0 118.0
    angle_coeff 173    70.0 118.0
    angle_coeff 174    70.0 118.0
    angle_coeff 175    70.0 118.0
    angle_coeff 176    70.0 118.0
    angle_coeff 177    70.0 124.0
    angle_coeff 178    70.0 124.0
    angle_coeff 179    70.0 124.0
    angle_coeff 180    70.0 124.0
    angle_coeff 181    70.0 118.0
    angle_coeff 182    70.0 118.0
    angle_coeff 183    70.0 118.0
    angle_coeff 184    70.0 120.0
    angle_coeff 185    85.0 120.0
    angle_coeff 186    85.0 120.0
    angle_coeff 187    85.0 120.0
    angle_coeff 188    85.0 120.0
    angle_coeff 189    85.0 120.0
    angle_coeff 190    77.0 109.1
    angle_coeff 191    40.0 109.5
    angle_coeff 192    50.0 109.5
    angle_coeff 193    63.0 111.1
    angle_coeff 194    63.0 111.1
    angle_coeff 195    40.0 109.5
    angle_coeff 196    40.0 109.5
    angle_coeff 197    63.0 109.5
    angle_coeff 198    50.0 109.5
    angle_coeff 199    50.0 109.5
    angle_coeff 200    58.35 112.7
    angle_coeff 201    63.0 111.1
    angle_coeff 202    50.0 108.6
    angle_coeff 203    50.0 114.7
    angle_coeff 204    58.35 112.7
    angle_coeff 205    50.0 109.5
    angle_coeff 206    50.0 109.5
    angle_coeff 207    69.0 109.8
    angle_coeff 208    69.0 109.8
    angle_coeff 209    78.0 111.7
    angle_coeff 210    50.0 108.6
    angle_coeff 211    50.0 109.5
    angle_coeff 212    63.0 110.1
    angle_coeff 213    80.0 109.7
    angle_coeff 214    80.0 109.7
    angle_coeff 215    50.0 114.7
    angle_coeff 216    56.2 109.47
    angle_coeff 217    56.2 109.47
    angle_coeff 218    56.2 109.47
    angle_coeff 219    56.2 109.47
    angle_coeff 220    80.0 111.2
    angle_coeff 221    33.0 107.8
    angle_coeff 222    35.0 108.5
    angle_coeff 223    35.0 108.5
    angle_coeff 224    35.0 109.5
    angle_coeff 225    35.0 109.5
    angle_coeff 226    35.0 109.5
    angle_coeff 227    35.0 109.5
    angle_coeff 228    35.0 109.5
    angle_coeff 229    35.0 109.5
    angle_coeff 230    35.0 109.5
    angle_coeff 231    35.0 109.5
    angle_coeff 232    35.0 109.5
    angle_coeff 233    37.5 110.7
    angle_coeff 234    40.0 107.0
    angle_coeff 235    51.0 107.6
    angle_coeff 236    35.0 109.5
    angle_coeff 237    50.0 109.5
    angle_coeff 238    63.0 111.1
    angle_coeff 239    63.0 112.4
    angle_coeff 240    35.0 109.5
    angle_coeff 241    40.0 109.5
    angle_coeff 242    40.0 109.5
    angle_coeff 243    50.0 109.5
    angle_coeff 244    50.0 109.5
    angle_coeff 245    50.0 109.5
    angle_coeff 246    50.0 114.7
    angle_coeff 247    63.0 112.0
    angle_coeff 248    63.0 114.0
    angle_coeff 249    63.0 114.0
    angle_coeff 250    80.0 111.2
    angle_coeff 251    35.0 109.5
    angle_coeff 252    37.5 110.7
    angle_coeff 253    50.0 109.5
    angle_coeff 254    58.35 112.7
    angle_coeff 255    35.0 109.5
    angle_coeff 256    80.0 111.2
    angle_coeff 257    80.0 111.2
    angle_coeff 258    35.0 109.5
    angle_coeff 259    80.0 111.2
    angle_coeff 260    35.0 109.5
    angle_coeff 261    63.0 110.1
    angle_coeff 262    65.0 109.0
    angle_coeff 263    35.0 109.5
    angle_coeff 264    80.0 111.2
    angle_coeff 265    35.0 109.5
    angle_coeff 266    63.0 114.0
    angle_coeff 267    41.0 109.5
    angle_coeff 268    43.0 109.5
    angle_coeff 269    43.0 109.5
    angle_coeff 270    51.0 107.6
    angle_coeff 271    69.0 109.8
    angle_coeff 272    69.0 110.0
    angle_coeff 273    69.0 110.0
    angle_coeff 274    78.0 111.7
    angle_coeff 275    75.0 111.0
    angle_coeff 276    75.0 112.0
    angle_coeff 277    35.0 109.5
    angle_coeff 278    50.0 108.6
    angle_coeff 279    50.0 109.5
    angle_coeff 280    35.0 109.5
    angle_coeff 281    63.0 115.6
    angle_coeff 282    35.0 109.5
    angle_coeff 283    63.0 114.0
    angle_coeff 284    35.0 109.5
    angle_coeff 285    50.0 114.7
    angle_coeff 286    63.0 114.0
    angle_coeff 287    35.0 109.5
    angle_coeff 288    63.0 114.0
    angle_coeff 289    35.0 109.5
    angle_coeff 290    63.0 115.6
    angle_coeff 291    35.0 109.5
    angle_coeff 292    80.0 110.0
    angle_coeff 293    80.0 113.0
    angle_coeff 294    37.5 110.7
    angle_coeff 295    35.0 105.0
    angle_coeff 296    63.0 105.0
    angle_coeff 297    35.0 109.5
    angle_coeff 298    80.0 111.2
    angle_coeff 299    35.0 105.0
    angle_coeff 300    63.0 111.1
    angle_coeff 301    41.0 109.5
    angle_coeff 302    43.0 109.5
    angle_coeff 303    35.0 109.5
    angle_coeff 304    50.0 109.5
    angle_coeff 305    50.0 109.5
    angle_coeff 306    35.0 109.5
    angle_coeff 307    80.0 109.7
    angle_coeff 308    35.0 109.5
    angle_coeff 309    60.0 112.0
    angle_coeff 310    70.0 124.0
    angle_coeff 311    70.0 124.0
    angle_coeff 312    70.0 124.0
    angle_coeff 313    70.0 118.0
    angle_coeff 314    70.0 118.0
    angle_coeff 315    70.0 118.0
    angle_coeff 316    70.0 124.0
    angle_coeff 317    70.0 124.0
    angle_coeff 318    70.0 124.0
    angle_coeff 319    70.0 118.0
    angle_coeff 320    70.0 118.0
    angle_coeff 321    70.0 118.0
    angle_coeff 322    70.0 118.0
    angle_coeff 323    70.0 118.0
    angle_coeff 324    70.0 118.0
    angle_coeff 325    70.0 118.0
    angle_coeff 326    70.0 124.0
    angle_coeff 327    70.0 124.0
    angle_coeff 328    70.0 124.0
    angle_coeff 329    70.0 124.0
    angle_coeff 330    70.0 118.0
    angle_coeff 331    70.0 118.0
    angle_coeff 332    70.0 118.0
    angle_coeff 333    70.0 118.0
    angle_coeff 334    70.0 118.0
    angle_coeff 335    70.0 118.0
    angle_coeff 336    70.0 118.0
    angle_coeff 337    35.0 92.07
    angle_coeff 338    44.0 96.0
    angle_coeff 339    44.0 96.0
    angle_coeff 340    44.0 96.0
    angle_coeff 341    5.0 109.47
    angle_coeff 342    10.0 109.47
    angle_coeff 343    10.0 160.0
    angle_coeff 344    150.0 96.7
    angle_coeff 345    150.0 96.7
    angle_coeff 346    150.0 96.7
    angle_coeff 347    150.0 96.7
    angle_coeff 348    50.0 96.0
    angle_coeff 349    62.0 98.9
    angle_coeff 350    62.0 98.9
    angle_coeff 351    68.0 103.7
    angle_coeff 352    68.0 103.7
    angle_coeff 353    68.0 103.7
    angle_coeff 354    65.0 100.0
    angle_coeff 355    5.0 109.47
    angle_coeff 356    10.0 109.47
    angle_coeff 357    10.0 160.0
    angle_coeff 358    150.0 96.7
    angle_coeff 359    150.0 96.7
    angle_coeff 360    150.0 96.7
    angle_coeff 361    150.0 96.7
    angle_coeff 362    62.0 104.2
    angle_coeff 363    62.0 104.2
    angle_coeff 364    74.0 92.4
    angle_coeff 365    10.0 130.0
    angle_coeff 366    10.0 130.0
    angle_coeff 367    74.0 97.0
    angle_coeff 368    10.0 130.0
    angle_coeff 369    74.0 90.0
    angle_coeff 370    74.0 97.0
    angle_coeff 371    74.0 97.0
    angle_coeff 372    62.0 94.0
    angle_coeff 373    10.0 109.47
    angle_coeff 374    33.0 109.47
    angle_coeff 375    150.0 180.0
    angle_coeff 376    170.0 180.0
    angle_coeff 377    100.0 180.0
    angle_coeff 378    150.0 180.0
    angle_coeff 379    140.0 180.0
    angle_coeff 380    150.0 180.0
    angle_coeff 381    10.0 90.0
    angle_coeff 382    112.0 180.0
    angle_coeff 383    150.0 180.0
    angle_coeff 384    160.0 180.0
    angle_coeff 385    150.0 180.0
    angle_coeff 386    160.0 180.0
    angle_coeff 387    160.0 180.0
    angle_coeff 388    150.0 180.0
    angle_coeff 389    150.0 180.0
    angle_coeff 390    100.0 111.8
    angle_coeff 391    83.0 116.9
    angle_coeff 392    83.0 116.9
    angle_coeff 393    100.0 111.8
    angle_coeff 394    55.0 108.5
    angle_coeff 395    55.0 108.5
    angle_coeff 396    83.0 116.9
    angle_coeff 397    100.0 111.8
    angle_coeff 398    60.0 109.5
    angle_coeff 399    83.0 116.9
    angle_coeff 400    5.0 109.47
    angle_coeff 401    10.0 109.47
    angle_coeff 402    75.0 111.0
    angle_coeff 403    10.0 109.47
    angle_coeff 404    75.0 111.0
    angle_coeff 405    75.0 111.0
    angle_coeff 406    75.0 111.0
    angle_coeff 407    83.0 116.9
    angle_coeff 408    100.0 111.8
    angle_coeff 409    60.0 109.5
    angle_coeff 410    100.0 113.0
    angle_coeff 411    100.0 113.0
    angle_coeff 412    100.0 113.0
    angle_coeff 413    70.0 104.5
    angle_coeff 414    10.0 125.0
    angle_coeff 415    100.0 120.5
    angle_coeff 416    100.0 120.5
    angle_coeff 417    100.0 120.5
    angle_coeff 418    100.0 120.5
    angle_coeff 419    100.0 120.5
    angle_coeff 420    100.0 120.5
    angle_coeff 421    10.0 125.0
    angle_coeff 422    70.0 106.5
    angle_coeff 423    70.0 107.0
    angle_coeff 424    10.0 125.0
    angle_coeff 425    70.0 104.0
    angle_coeff 426    70.0 106.5
    angle_coeff 427    70.0 106.5
    angle_coeff 428    70.0 108.9
    angle_coeff 429    20.0 145.0
    angle_coeff 430    40.0 130.0
    angle_coeff 431    33.0 109.47
    angle_coeff 432    62.0 96.0
    angle_coeff 433    74.0 107.0
    angle_coeff 434    10.0 90.0
    angle_coeff 435    50.0 121.9
    angle_coeff 436    70.0 126.4
    angle_coeff 437    46.0 115.7
    angle_coeff 438    50.0 121.9
    angle_coeff 439    50.0 121.9
    angle_coeff 440    50.0 118.0
    angle_coeff 441    50.0 121.9
    angle_coeff 442    50.0 118.0
    angle_coeff 443    50.0 121.9
    angle_coeff 444    70.0 112.0
    angle_coeff 445    70.0 108.6
    angle_coeff 446    10.0 109.5
    angle_coeff 447    10.0 100.0
    angle_coeff 448    35.0 110.2
    angle_coeff 449    35.0 119.8
    angle_coeff 450    35.0 120.0
    angle_coeff 451    38.0 118.4
    angle_coeff 452    38.0 118.4
    angle_coeff 453    38.0 118.4
    angle_coeff 454    38.0 118.4
    angle_coeff 455    35.0 119.8
    angle_coeff 456    50.0 118.0
    angle_coeff 457    50.0 121.9
    angle_coeff 458    70.0 118.0
    angle_coeff 459    35.0 120.0
    angle_coeff 460    35.0 118.0
    angle_coeff 461    70.0 125.2
    angle_coeff 462    50.0 120.0
    angle_coeff 463    100.0 111.0
    angle_coeff 464    35.0 119.8
    angle_coeff 465    70.0 118.0
    angle_coeff 466    70.0 117.0
    angle_coeff 467    35.0 119.8
    angle_coeff 468    70.0 118.0
    angle_coeff 469    35.0 119.8
    angle_coeff 470    70.0 118.0
    angle_coeff 471    40.0 113.0
    angle_coeff 472    55.0 128.0
    angle_coeff 473    70.0 121.0
    angle_coeff 474    20.0 126.0
    angle_coeff 475    33.0 109.47
    angle_coeff 476    75.0 104.52
    angle_coeff 477    50.0 52.26
    angle_coeff 478    34.05 104.52
    angle_coeff 479    75.0 109.5
    angle_coeff 480    50.0 54.75
    angle_coeff 481    75.0 104.52
    angle_coeff 482    50.0 109.47
    angle_coeff 483    50.0 110.6948
    angle_coeff 484    75.0 109.47
    angle_coeff 485    51.8 107.2
    angle_coeff 486    51.8 107.2
    angle_coeff 487    51.8 107.2
    angle_coeff 488    51.8 107.2
    angle_coeff 489    51.8 107.2
    angle_coeff 490    51.8 107.2
    angle_coeff 491    51.8 107.2
    angle_coeff 492    51.8 107.2
    angle_coeff 493    51.8 107.2
    angle_coeff 494    51.8 107.2
    angle_coeff 495    63.0 111.1
    angle_coeff 496    10.0 100.0
    angle_coeff 497    35.0 109.5
    angle_coeff 498    43.2 108.1
    angle_coeff 499    43.2 108.1
    angle_coeff 500    43.2 108.1
    angle_coeff 501    43.6 106.4
    angle_coeff 502    10.0 109.5
    angle_coeff 503    35.0 116.0
    angle_coeff 504    50.0 116.0
    angle_coeff 505    50.0 116.0
    angle_coeff 506    63.0 112.0
    angle_coeff 507    35.0 115.0
    angle_coeff 508    50.0 108.6
    angle_coeff 509    50.0 108.6
    angle_coeff 510    50.0 109.5
    angle_coeff 511    33.0 109.47
    angle_coeff 512    10.0 109.5
    angle_coeff 513    33.0 109.47
    angle_coeff 514    37.5 109.47
    angle_coeff 515    80.0 108.0
    angle_coeff 516    80.0 121.5
    angle_coeff 517    85.0 119.7
    angle_coeff 518    70.0 119.7
    angle_coeff 519    70.0 130.0
    angle_coeff 520    10.0 90.0
    angle_coeff 521    35.0 114.5
    angle_coeff 522    35.0 117.0
    angle_coeff 523    35.0 117.0
    angle_coeff 524    35.0 119.7
    angle_coeff 525    35.0 120.0
    angle_coeff 526    50.0 112.0
    angle_coeff 527    60.0 114.0
    angle_coeff 528    2.0 90.0
    angle_coeff 529    35.0 120.0
    angle_coeff 530    70.0 123.0
    angle_coeff 531    70.0 123.0
    angle_coeff 532    70.0 124.0
    angle_coeff 533    70.0 124.0
    angle_coeff 534    75.0 121.5
    angle_coeff 535    80.0 121.5
    angle_coeff 536    85.0 119.4
    angle_coeff 537    85.0 120.7
    angle_coeff 538    35.0 123.3
    angle_coeff 539    85.0 117.0
    angle_coeff 540    85.0 119.7
    angle_coeff 541    2.0 90.0
    angle_coeff 542    35.0 120.0
    angle_coeff 543    70.0 123.0
    angle_coeff 544    70.0 123.0
    angle_coeff 545    70.0 124.0
    angle_coeff 546    35.0 119.1
    angle_coeff 547    70.0 120.0
    angle_coeff 548    70.0 120.0
    angle_coeff 549    70.0 121.2
    angle_coeff 550    85.0 119.4
    angle_coeff 551    35.0 119.1
    angle_coeff 552    35.0 119.7
    angle_coeff 553    60.0 114.0
    angle_coeff 554    75.0 120.0
    angle_coeff 555    35.0 135.0
    angle_coeff 556    70.0 119.7
    angle_coeff 557    70.0 124.0
    angle_coeff 558    35.0 119.1
    angle_coeff 559    35.0 119.1
    angle_coeff 560    70.0 120.0
    angle_coeff 561    70.0 120.0
    angle_coeff 562    70.0 121.2
    angle_coeff 563    85.0 119.4
    angle_coeff 564    40.0 121.0
    angle_coeff 565    80.0 122.0
    angle_coeff 566    80.0 122.0
    angle_coeff 567    80.0 125.0
    angle_coeff 568    70.0 120.0
    angle_coeff 569    85.0 120.0
    angle_coeff 570    70.0 119.7
    angle_coeff 571    10.0 90.0
    angle_coeff 572    63.0 120.0
    angle_coeff 573    70.0 120.0
    angle_coeff 574    70.0 120.0
    angle_coeff 575    70.0 120.0
    angle_coeff 576    70.0 120.0
    angle_coeff 577    70.0 120.0
    angle_coeff 578    70.0 120.0
    angle_coeff 579    70.0 120.0
    angle_coeff 580    70.0 120.0
    angle_coeff 581    70.0 120.0
    angle_coeff 582    70.0 124.0
    angle_coeff 583    75.0 120.0
    angle_coeff 584    80.0 120.0
    angle_coeff 585    80.0 120.0
    angle_coeff 586    85.0 119.4
    angle_coeff 587    85.0 120.0
    angle_coeff 588    2.0 90.0
    angle_coeff 589    35.0 119.1
    angle_coeff 590    35.0 120.0
    angle_coeff 591    35.0 120.0
    angle_coeff 592    70.0 124.0
    angle_coeff 593    70.0 120.0
    angle_coeff 594    70.0 120.0
    angle_coeff 595    70.0 120.1
    angle_coeff 596    70.0 120.1
    angle_coeff 597    35.0 116.0
    angle_coeff 598    70.0 116.0
    angle_coeff 599    70.0 116.0
    angle_coeff 600    70.0 119.3
    angle_coeff 601    70.0 120.0
    angle_coeff 602    70.0 121.5
    angle_coeff 603    70.0 121.5
    angle_coeff 604    70.0 124.0
    angle_coeff 605    75.0 120.0
    angle_coeff 606    35.0 120.0
    angle_coeff 607    70.0 108.7
    angle_coeff 608    70.0 116.0
    angle_coeff 609    70.0 120.0
    angle_coeff 610    70.0 121.5
    angle_coeff 611    70.0 123.3
    angle_coeff 612    35.0 120.0
    angle_coeff 613    63.0 120.0
    angle_coeff 614    70.0 108.7
    angle_coeff 615    70.0 117.3
    angle_coeff 616    70.0 123.5
    angle_coeff 617    70.0 128.6
    angle_coeff 618    70.0 128.6
    angle_coeff 619    35.0 119.1
    angle_coeff 620    70.0 108.7
    angle_coeff 621    70.0 123.3
    angle_coeff 622    85.0 119.4
    angle_coeff 623    75.0 120.0
    angle_coeff 624    75.0 120.0
    angle_coeff 625    85.0 119.4
    angle_coeff 626    35.0 120.0
    angle_coeff 627    85.0 120.0
    angle_coeff 628    35.0 126.9
    angle_coeff 629    63.0 106.4
    angle_coeff 630    70.0 107.4
    angle_coeff 631    35.0 120.0
    angle_coeff 632    63.0 120.0
    angle_coeff 633    70.0 124.0
    angle_coeff 634    35.0 128.2
    angle_coeff 635    70.0 111.8
    angle_coeff 636    70.0 124.1
    angle_coeff 637    85.0 120.0
    angle_coeff 638    70.0 124.0
    angle_coeff 639    10.0 90.0
    angle_coeff 640    35.0 120.0
    angle_coeff 641    2.0 90.0
    angle_coeff 642    35.0 120.0
    angle_coeff 643    70.0 118.7
    angle_coeff 644    70.0 124.0
    angle_coeff 645    35.0 123.3
    angle_coeff 646    85.0 117.0
    angle_coeff 647    2.0 90.0
    angle_coeff 648    35.0 120.0
    angle_coeff 649    70.0 124.0
    angle_coeff 650    70.0 124.0
    angle_coeff 651    35.0 106.0
    angle_coeff 652    35.0 122.0
    angle_coeff 653    35.0 120.0
    angle_coeff 654    70.0 124.0
    angle_coeff 655    70.0 124.0
    angle_coeff 656    40.0 109.5
    angle_coeff 657    50.0 109.5
    angle_coeff 658    50.0 109.5
    angle_coeff 659    80.0 109.5
    angle_coeff 660    80.0 109.5
    angle_coeff 661    92.6 111.55
    angle_coeff 662    92.6 111.55
    angle_coeff 663    33.0 109.5
    angle_coeff 664    35.0 109.5
    angle_coeff 665    35.0 109.5
    angle_coeff 666    37.5 110.7
    angle_coeff 667    35.0 109.5
    angle_coeff 668    50.0 109.5
    angle_coeff 669    50.0 109.5
    angle_coeff 670    50.0 113.0
    angle_coeff 671    10.0 100.0
    angle_coeff 672    43.6 109.5
    angle_coeff 673    10.0 100.0
    angle_coeff 674    55.0 114.0
    angle_coeff 675    35.0 109.5
    angle_coeff 676    35.0 109.5
    angle_coeff 677    35.0 109.5
    angle_coeff 678    35.0 109.5
    angle_coeff 679    35.0 109.5
    angle_coeff 680    10.0 100.0
    angle_coeff 681    50.0 118.0
    angle_coeff 682    35.0 113.0
    angle_coeff 683    35.0 118.4
    angle_coeff 684    35.0 120.0
    angle_coeff 685    50.0 123.2
    angle_coeff 686    50.0 123.2
    angle_coeff 687    50.0 123.2
    angle_coeff 688    35.0 118.4
    angle_coeff 689    35.0 118.4
    angle_coeff 690    35.0 120.0
    angle_coeff 691    35.0 120.0
    angle_coeff 692    35.0 120.0
    angle_coeff 693    70.0 120.5
    angle_coeff 694    70.0 120.0
    angle_coeff 695    5.0 120.0
    angle_coeff 696    35.0 113.0
    angle_coeff 697    50.0 118.0
    angle_coeff 698    70.0 117.0
    angle_coeff 699    70.0 120.5
    angle_coeff 700    70.0 117.0
    angle_coeff 701    70.0 117.0
    angle_coeff 702    5.0 119.8
    angle_coeff 703    70.0 118.6
    angle_coeff 704    70.0 118.6
    angle_coeff 705    70.0 111.0
    angle_coeff 706    70.0 112.2
    angle_coeff 707    70.0 111.0
    angle_coeff 708    70.0 117.0
    angle_coeff 709    70.0 114.0
    angle_coeff 710    70.0 126.4
    angle_coeff 711    35.0 116.8
    angle_coeff 712    35.0 119.2
    angle_coeff 713    70.0 121.6
    angle_coeff 714    35.0 118.0
    angle_coeff 715    70.0 125.2
    angle_coeff 716    70.0 125.2
    angle_coeff 717    30.0 125.8
    angle_coeff 718    70.0 125.8
    angle_coeff 719    56.0 113.1
    angle_coeff 720    56.0 118.4
    angle_coeff 721    70.0 118.4
    angle_coeff 722    70.0 118.4
    angle_coeff 723    30.0 128.8
    angle_coeff 724    70.0 105.4
    angle_coeff 725    70.0 109.8
    angle_coeff 726    70.0 128.8
    angle_coeff 727    35.0 123.1
    angle_coeff 728    35.0 120.0
    angle_coeff 729    56.0 113.1
    angle_coeff 730    70.0 109.8
    angle_coeff 731    35.0 120.0
    angle_coeff 732    56.0 113.1
    angle_coeff 733    70.0 109.8
    angle_coeff 734    70.0 109.8
    angle_coeff 735    70.0 109.8
    angle_coeff 736    70.0 111.6
    angle_coeff 737    35.0 120.0
    angle_coeff 738    70.0 109.8
    angle_coeff 739    70.0 116.0
    angle_coeff 740    35.0 115.45
    angle_coeff 741    70.0 115.5
    angle_coeff 742    70.0 119.3
    angle_coeff 743    70.0 123.3
    angle_coeff 744    70.0 129.1
    angle_coeff 745    35.0 115.45
    angle_coeff 746    70.0 120.0
    angle_coeff 747    85.0 134.9
    angle_coeff 748    70.0 126.2
    angle_coeff 749    70.0 106.2
    angle_coeff 750    70.0 110.6
    angle_coeff 751    70.0 111.0
    angle_coeff 752    70.0 120.0
    angle_coeff 753    70.0 127.7
    angle_coeff 754    70.0 127.7
    angle_coeff 755    85.0 117.3
    angle_coeff 756    85.0 119.2
    angle_coeff 757    70.0 111.0
    angle_coeff 758    70.0 126.2
    angle_coeff 759    70.0 130.0
    angle_coeff 760    70.0 132.4
    angle_coeff 761    85.0 134.9
    angle_coeff 762    85.0 134.9
    angle_coeff 763    85.0 108.8
    angle_coeff 764    85.0 116.2
    angle_coeff 765    85.0 116.2
    angle_coeff 766    70.0 130.0
    angle_coeff 767    70.0 107.3
    angle_coeff 768    70.0 107.7
    angle_coeff 769    85.0 108.8
    angle_coeff 770    85.0 134.9
    angle_coeff 771    85.0 134.9
    angle_coeff 772    70.0 106.2
    angle_coeff 773    70.0 126.2
    angle_coeff 774    70.0 125.2
    angle_coeff 775    10.0 125.0
    angle_coeff 776    10.0 125.0
    angle_coeff 777    70.0 103.8
    angle_coeff 778    10.0 125.0
    angle_coeff 779    70.0 109.0
    angle_coeff 780    70.0 110.0
    angle_coeff 781    70.0 110.0
    angle_coeff 782    70.0 104.1
    angle_coeff 783    70.0 110.0
    angle_coeff 784    70.0 104.1
    angle_coeff 785    70.0 105.3
    angle_coeff 786    35.0 120.0
    angle_coeff 787    35.0 120.0
    angle_coeff 788    70.0 113.9
    angle_coeff 789    35.0 123.05
    angle_coeff 790    35.0 123.05
    angle_coeff 791    35.0 120.0
    angle_coeff 792    35.0 123.05
    angle_coeff 793    70.0 113.9
    angle_coeff 794    45.0 102.6
    angle_coeff 795    100.0 108.23
    angle_coeff 796    45.0 109.5
    angle_coeff 797    45.0 102.6
    angle_coeff 798    45.0 102.6
    angle_coeff 799    45.0 109.5
    angle_coeff 800    100.0 108.23
    angle_coeff 801    45.0 109.5
    angle_coeff 802    45.0 109.5
    angle_coeff 803    45.0 109.5
    angle_coeff 804    45.0 108.23
    angle_coeff 805    45.0 109.5
    angle_coeff 806    100.0 108.23
    angle_coeff 807    140.0 119.9
    angle_coeff 808    33.0 109.47
    angle_coeff 809    33.0 109.47
    angle_coeff 810    150.0 180.0
    angle_coeff 811    62.0 98.9
    angle_coeff 812    62.0 102.0
    angle_coeff 813    75.0 96.4
    angle_coeff 814    74.0 108.7
    angle_coeff 815    74.0 108.9
    angle_coeff 816    104.0 119.0
    angle_coeff 817    100.0 103.0
    angle_coeff 818    120.0 107.0
    angle_coeff 819    62.0 102.0
    angle_coeff 820    74.0 108.9
    angle_coeff 821    62.0 102.0
    angle_coeff 822    74.0 107.2
    angle_coeff 823    75.0 96.4
    angle_coeff 824    100.0 103.0
    angle_coeff 825    62.0 102.0
    angle_coeff 826    35.0 126.8
    angle_coeff 827    70.0 128.6
    angle_coeff 828    70.0 128.6
    angle_coeff 829    35.0 126.8
    angle_coeff 830    70.0 125.0
    angle_coeff 831    70.0 125.0
    angle_coeff 832    85.0 106.4
    angle_coeff 833    70.0 132.8
    angle_coeff 834    70.0 132.8
    angle_coeff 835    70.0 104.4
    angle_coeff 836    85.0 122.7
    angle_coeff 837    85.0 122.7
    angle_coeff 838    70.0 125.0
    angle_coeff 839    70.0 125.0
    angle_coeff 840    70.0 120.2
    angle_coeff 841    35.0 117.0
    angle_coeff 842    35.0 125.0
    angle_coeff 843    35.0 120.0
    angle_coeff 844    70.0 120.0
    angle_coeff 845    70.0 125.0
    angle_coeff 846    70.0 125.0
    angle_coeff 847    70.0 126.2
    angle_coeff 848    35.0 120.0
    angle_coeff 849    70.0 115.0
    angle_coeff 850    70.0 115.0
    angle_coeff 851    70.0 120.0
    angle_coeff 852    70.0 125.0
    angle_coeff 853    70.0 126.1
    angle_coeff 854    70.0 126.2
    angle_coeff 855    70.0 120.0
    angle_coeff 856    70.0 120.0
    angle_coeff 857    70.0 122.0
    angle_coeff 858    70.0 130.0
    angle_coeff 859    70.0 106.2
    angle_coeff 860    70.0 127.7
    angle_coeff 861    35.0 120.0
    angle_coeff 862    70.0 111.0
    angle_coeff 863    70.0 124.5
    angle_coeff 864    35.0 128.2
    angle_coeff 865    70.0 111.0
    angle_coeff 866    70.0 130.7
    angle_coeff 867    70.0 125.0
    angle_coeff 868    70.0 121.6
    angle_coeff 869    70.0 125.0
    angle_coeff 870    35.0 113.4
    angle_coeff 871    35.0 125.0
    angle_coeff 872    35.0 130.7
    angle_coeff 873    35.0 130.7
    angle_coeff 874    70.0 110.0
    angle_coeff 875    35.0 121.6
    angle_coeff 876    70.0 121.6
    angle_coeff 877    70.0 121.6
    angle_coeff 878    85.0 120.0
    angle_coeff 879    35.0 120.0
    angle_coeff 880    70.0 118.9
    angle_coeff 881    35.0 120.0
    angle_coeff 882    70.0 108.7
    angle_coeff 883    35.0 130.7
    angle_coeff 884    70.0 106.3
    angle_coeff 885    70.0 108.0
    angle_coeff 886    70.0 111.0
    angle_coeff 887    70.0 130.7
    angle_coeff 888    70.0 120.0
    angle_coeff 889    70.0 120.0
    angle_coeff 890    70.0 120.0
    angle_coeff 891    70.0 121.6
    angle_coeff 892    70.0 121.6
    angle_coeff 893    35.0 132.1
    angle_coeff 894    70.0 107.7
    angle_coeff 895    70.0 110.6
    angle_coeff 896    70.0 111.0
    angle_coeff 897    70.0 111.9
    angle_coeff 898    70.0 132.1
    angle_coeff 899    70.0 132.1
    angle_coeff 900    70.0 132.1
    angle_coeff 901    85.0 120.0
    angle_coeff 902    35.0 120.0
    angle_coeff 903    70.0 121.6
    angle_coeff 904    35.0 130.7
    angle_coeff 905    70.0 106.3
    angle_coeff 906    70.0 130.7
    angle_coeff 907    63.0 120.0
    angle_coeff 908    70.0 124.0
    angle_coeff 909    63.0 120.0
    angle_coeff 910    63.0 120.0
    angle_coeff 911    63.0 120.0
    angle_coeff 912    63.0 120.0
    angle_coeff 913    70.0 124.0
    angle_coeff 914    63.0 120.0
    angle_coeff 915    63.0 120.0
    angle_coeff 916    35.0 120.0
    angle_coeff 917    35.0 126.8
    angle_coeff 918    70.0 128.6
    angle_coeff 919    35.0 125.7
    angle_coeff 920    35.0 126.8
    angle_coeff 921    70.0 103.8
    angle_coeff 922    70.0 110.4
    angle_coeff 923    70.0 125.0
    angle_coeff 924    70.0 125.0
    angle_coeff 925    70.0 130.0
    angle_coeff 926    85.0 106.4
    angle_coeff 927    70.0 125.7
    angle_coeff 928    35.0 127.5
    angle_coeff 929    70.0 107.3
    angle_coeff 930    70.0 107.3
    angle_coeff 931    70.0 127.5
    angle_coeff 932    70.0 103.8
    angle_coeff 933    35.0 128.6
    angle_coeff 934    35.0 118.9
    angle_coeff 935    70.0 118.9
    angle_coeff 936    70.0 118.9
    angle_coeff 937    70.0 111.9
    angle_coeff 938    80.0 134.0
    angle_coeff 939    70.0 91.0
    angle_coeff 940    80.0 134.0
    angle_coeff 941    55.0 127.0
    angle_coeff 942    50.0 94.0
    angle_coeff 943    50.0 126.0
    angle_coeff 944    35.0 108.0
    angle_coeff 945    35.0 114.3
    angle_coeff 946    35.0 114.3
    angle_coeff 947    35.0 114.3
    angle_coeff 948    37.5 108.0
    angle_coeff 949    35.0 109.5
    angle_coeff 950    37.5 110.0
    angle_coeff 951    70.0 117.0
    angle_coeff 952    35.0 111.0
    angle_coeff 953    55.0 109.0
    angle_coeff 954    30.0 79.2
    angle_coeff 955    37.5 117.2
    angle_coeff 956    37.5 117.2
    angle_coeff 957    37.5 117.2
    angle_coeff 958    37.5 126.0
    angle_coeff 959    55.0 128.0
    angle_coeff 960    63.0 85.0
    angle_coeff 961    63.0 114.0
    angle_coeff 962    80.0 89.0
    angle_coeff 963    172.8 120.0
    angle_coeff 964    144.0 120.0
    angle_coeff 965    35.0 109.5
    angle_coeff 966    43.6 106.4
    angle_coeff 967    50.0 112.5
    angle_coeff 968    50.0 120.5
    angle_coeff 969    80.0 117.5
    angle_coeff 970    80.0 117.5
    angle_coeff 971    80.0 125.0
[...]
SHAKE stats (type/ave/delta) on step 91300
  2 1 9.92873e-07
  1 109.47 8.5371e-05
   91300   -6040.7244    7484.7105 0.0019848143    250.74548   0.24155312     65597098   -13802.156    276.72054    5984.0738 
SHAKE stats (type/ave/delta) on step 91400
  2 1 1.07408e-06
  1 109.47 8.6846e-05
   91400   -6044.5343    7428.9293 0.0019848143    248.87675    1.9290404     65597098   -13734.996    261.53192    5915.0368 
SHAKE stats (type/ave/delta) on step 91500
  2 1 1.0555e-06
  1 109.47 8.5666e-05
   91500   -6041.5217    7415.0331 0.0019848143    248.41122   0.93341036     65597098   -13719.225    262.67053      5902.16 
SHAKE stats (type/ave/delta) on step 91600
  2 1 1.02362e-06
  1 109.47 8.6219e-05
   91600    -5990.361    7409.6344 0.0019848143    248.23036  -0.91818247     65597098   -13681.064    281.06895     5913.245 
SHAKE stats (type/ave/delta) on step 91700
  2 1 1.10883e-06
  1 109.47 8.58259e-05
   91700   -6020.7005    7341.3659 0.0019848143    245.94329    1.9222787     65597098   -13664.439    302.37271    5863.8633 
SHAKE stats (type/ave/delta) on step 91800
  2 1 1.08748e-06
  1 109.47 8.59925e-05
   91800   -6027.6514    7408.1459 0.0019848143    248.18049    1.0075669     65597098   -13749.063    313.26601    5940.2896 
SHAKE stats (type/ave/delta) on step 91900
  2 1 1.16645e-06
  1 109.47 8.81783e-05
   91900   -6003.6644    7354.0618 0.0019848143    246.36862      1.73357     65597098   -13661.459     303.7332    5877.5948 
SHAKE stats (type/ave/delta) on step 92000
  2 1 1.03891e-06
  1 109.47 9.56858e-05
   92000   -6035.7095    7457.9864 0.0019848143     249.8502   -1.5257769     65597098   -13775.621    281.92512    5961.9905 
SHAKE stats (type/ave/delta) on step 92100
  2 1 1.11953e-06
  1 109.47 8.33446e-05
   92100   -6075.9459    7354.3252 0.0019848143    246.37744   0.23031153     65597098   -13691.776    261.50452      5840.16 
SHAKE stats (type/ave/delta) on step 92200
  2 1 1.29501e-06
  1 109.47 8.54278e-05
   92200   -6006.3457    7432.8161 0.0019848143    249.00697    1.3094444     65597098   -13697.177    258.01519    5915.4454 
SHAKE stats (type/ave/delta) on step 92300
  2 1 9.85065e-07
  1 109.47 8.39599e-05
   92300   -6035.5145    7362.6714 0.0019848143    246.65705   0.89110662     65597098   -13673.283    275.09725    5860.7452 
SHAKE stats (type/ave/delta) on step 92400
  2 1 1.16715e-06
  1 109.47 8.98061e-05
   92400   -5940.9759    7401.4435 0.0019848143    247.95595   0.63476104     65597098   -13640.974    298.55446    5920.6244 
SHAKE stats (type/ave/delta) on step 92500
  2 1 1.03124e-06
  1 109.47 8.52512e-05
   92500    -6002.905     7317.876 0.0019848143    245.15636   -1.3705116     65597098   -13635.264    314.48276    5851.6854 
SHAKE stats (type/ave/delta) on step 92600
  2 1 1.11973e-06
  1 109.47 8.8489e-05
   92600   -6070.7724    7415.9255 0.0019848143    248.44112    2.1250345     65597098   -13794.294    307.59654    5942.8113 
SHAKE stats (type/ave/delta) on step 92700
  2 1 1.10516e-06
  1 109.47 8.50429e-05
   92700   -6023.9689    7374.3317 0.0019848143    247.04768  -0.32319133     65597098   -13684.342    286.04118    5882.0843 
SHAKE stats (type/ave/delta) on step 92800
  2 1 1.1278e-06
  1 109.47 8.67727e-05
   92800   -6002.8385    7410.5838 0.0019848143    248.26216   0.42053424     65597098   -13676.406    262.98385     5897.783 
SHAKE stats (type/ave/delta) on step 92900
  2 1 1.1766e-06
  1 109.47 8.94327e-05
   92900   -6020.3357    7391.4459 0.0019848143    247.62102  -0.16288434     65597098     -13667.4    255.61861    5871.9896 
SHAKE stats (type/ave/delta) on step 93000
  2 1 1.18029e-06
  1 109.47 8.69254e-05
   93000   -6016.1553    7330.8189 0.0019848143    245.58996    0.9843363     65597098   -13617.232    270.25821     5824.682 
SHAKE stats (type/ave/delta) on step 93100
  2 1 1.0686e-06
  1 109.47 8.36108e-05
   93100   -5978.2781    7400.4277 0.0019848143    247.92192    1.7354369     65597098   -13674.775     296.0694    5916.8897 
SHAKE stats (type/ave/delta) on step 93200
  2 1 1.03812e-06
  1 109.47 8.48971e-05
   93200   -6003.3813    7411.4143 0.0019848143    248.28998  -0.84958752     65597098   -13728.448    313.65204    5943.8445 
SHAKE stats (type/ave/delta) on step 93300
  2 1 9.70445e-07
  1 109.47 9.83053e-05
   93300   -6038.9788    7290.5678 0.0019848143     244.2415    1.3236641     65597098   -13641.084    311.53729    5821.3081 
SHAKE stats (type/ave/delta) on step 93400
  2 1 9.66765e-07
  1 109.47 8.72221e-05
   93400   -6009.6255    7445.8675 0.0019848143     249.4442   0.50301326     65597098   -13746.744    291.25083    5958.5034 
SHAKE stats (type/ave/delta) on step 93500
  2 1 1.13181e-06
  1 109.47 8.75729e-05
   93500   -6046.2249     7369.461 0.0019848143    246.88451    1.7535417     65597098   -13683.153    267.46684    5860.8474 
SHAKE stats (type/ave/delta) on step 93600
  2 1 1.17351e-06
  1 109.47 9.40351e-05
   93600   -6006.5194    7411.2369 0.0019848143    248.28404 -0.096239277     65597098   -13673.861    256.10513    5892.3152 
SHAKE stats (type/ave/delta) on step 93700
  2 1 1.07446e-06
  1 109.47 8.71075e-05
   93700   -6040.0835    7384.1068 0.0019848143    247.37516   -0.2349145     65597098   -13691.781    267.59036    5875.4309 
SHAKE stats (type/ave/delta) on step 93800
  2 1 1.30491e-06
  1 109.47 8.83414e-05
   93800   -6012.1076    7417.7525 0.0019848143    248.50232     1.620286     65597098   -13720.598    290.73834    5929.5796 
SHAKE stats (type/ave/delta) on step 93900
  2 1 1.13465e-06
  1 109.47 8.24236e-05
   93900    -5987.898    7357.0196 0.0019848143    246.46771   0.54626079     65597098   -13656.472    311.55439    5887.1379 
SHAKE stats (type/ave/delta) on step 94000
  2 1 1.10867e-06
  1 109.47 9.16133e-05
   94000    -5996.499    7379.7232 0.0019848143     247.2283    1.1622796     65597098   -13689.545    313.32247    5911.7979 
SHAKE stats (type/ave/delta) on step 94100
  2 1 1.01765e-06
  1 109.47 8.59268e-05
   94100   -6075.6855    7381.2232 0.0019848143    247.27855  -0.40012544     65597098   -13752.589    295.68018    5897.6124 
SHAKE stats (type/ave/delta) on step 94200
  2 1 9.71922e-07
  1 109.47 8.43093e-05
   94200   -6077.5924    7426.4776 0.0019848143    248.79462    1.1468308     65597098   -13776.386    272.31595    5921.9425 
SHAKE stats (type/ave/delta) on step 94300
  2 1 1.10273e-06
  1 109.47 8.65014e-05
   94300   -6089.9613    7476.3074 0.0019848143    250.46397   0.92724605     65597098   -13822.908    256.63945    5957.9892 
SHAKE stats (type/ave/delta) on step 94400
  2 1 1.05473e-06
  1 109.47 8.82998e-05
   94400   -5985.7389    7369.2482 0.0019848143    246.87738   0.79412443     65597098   -13619.403    264.41597    5858.1493 
SHAKE stats (type/ave/delta) on step 94500
  2 1 1.0453e-06
  1 109.47 9.81536e-05
   94500   -6033.7817    7420.0064 0.0019848143    248.57783   0.34543671     65597098   -13739.001    285.21255    5927.3676 
SHAKE stats (type/ave/delta) on step 94600
  2 1 9.32908e-07
  1 109.47 8.42449e-05
   94600   -6040.6888    7442.3006 0.0019848143    249.32471   -0.6805064     65597098     -13790.1    307.11027     5969.362 
SHAKE stats (type/ave/delta) on step 94700
  2 1 1.07296e-06
  1 109.47 8.75057e-05
   94700   -5984.2503    7365.4532 0.0019848143    246.75024       2.1293     65597098   -13663.191    313.48737    5898.4041 
SHAKE stats (type/ave/delta) on step 94800
  2 1 9.79903e-07
  1 109.47 8.46953e-05
   94800   -6058.4168    7320.4057 0.0019848143     245.2411    0.3335462     65597098   -13678.177     299.3542    5840.4464 
SHAKE stats (type/ave/delta) on step 94900
  2 1 1.16641e-06
  1 109.47 8.80179e-05
   94900   -6033.0211    7415.6901 0.0019848143    248.43323   0.60610154     65597098   -13725.467    276.75612    5915.6252 
SHAKE stats (type/ave/delta) on step 95000
  2 1 9.99775e-07
  1 109.47 8.38443e-05
   95000   -6052.8653    7404.5908 0.0019848143    248.06139   -1.1599393     65597098   -13716.759    259.30242    5888.9479 
SHAKE stats (type/ave/delta) on step 95100
  2 1 1.01534e-06
  1 109.47 8.75951e-05
   95100   -6046.8871     7406.756 0.0019848143    248.13393   0.75656538     65597098   -13715.489    261.84589    5893.6293 
SHAKE stats (type/ave/delta) on step 95200
  2 1 1.181e-06
  1 109.47 8.59133e-05
   95200   -6022.2815    7345.2564 0.0019848143    246.07363    1.3887729     65597098   -13646.766     279.2285    5847.5753 
SHAKE stats (type/ave/delta) on step 95300
  2 1 1.0512e-06
  1 109.47 8.7823e-05
   95300   -5994.2889    7328.5494 0.0019848143    245.51393   0.11620063     65597098   -13624.514    301.67591    5850.8587 
SHAKE stats (type/ave/delta) on step 95400
  2 1 1.05769e-06
  1 109.47 9.19323e-05
   95400   -5982.5574    7390.1326 0.0019848143    247.57703   0.27578944     65597098   -13684.742    312.05236    5921.5719 
SHAKE stats (type/ave/delta) on step 95500
  2 1 1.01801e-06
  1 109.47 8.54925e-05
   95500   -6075.8811    7387.5182 0.0019848143    247.48944  0.097988892     65597098     -13766.3    302.90033    5910.6287 
SHAKE stats (type/ave/delta) on step 95600
  2 1 9.46488e-07
  1 109.47 9.92502e-05
   95600   -6021.7671    7394.0852 0.0019848143    247.70944    1.8546983     65597098   -13698.844    282.99153    5899.4039 
SHAKE stats (type/ave/delta) on step 95700
  2 1 1.16434e-06
  1 109.47 8.41966e-05
   95700   -6045.0387    7381.1433 0.0019848143    247.27588   0.18817269     65597098   -13689.252    263.07019    5868.7192 
SHAKE stats (type/ave/delta) on step 95800
  2 1 1.1632e-06
  1 109.47 8.59905e-05
   95800   -6042.7596    7401.9682 0.0019848143    247.97353   0.45863797     65597098   -13705.969    261.24142    5888.1502 
SHAKE stats (type/ave/delta) on step 95900
  2 1 1.02132e-06
  1 109.47 8.72178e-05
   95900   -6044.8881     7354.279 0.0019848143    246.37589    0.7653063     65597098   -13673.718    274.55141    5852.2429 
SHAKE stats (type/ave/delta) on step 96000
  2 1 1.0438e-06
  1 109.47 8.99371e-05
   96000   -6010.3511    7358.4426 0.0019848143    246.51538    1.5954717     65597098   -13665.304    296.50993    5876.0809 
SHAKE stats (type/ave/delta) on step 96100
  2 1 1.24568e-06
  1 109.47 8.88799e-05
   96100   -6027.5384    7374.7885 0.0019848143    247.06298   0.65223173     65597098   -13712.853    310.52655    5904.9942 
SHAKE stats (type/ave/delta) on step 96200
  2 1 1.10666e-06
  1 109.47 8.66135e-05
   96200   -6037.0318    7362.0674 0.0019848143    246.63681  -0.44043764     65597098   -13705.401    306.30184    5888.3766 
SHAKE stats (type/ave/delta) on step 96300
  2 1 1.01246e-06
  1 109.47 8.24368e-05
   96300    -6018.706    7383.6885 0.0019848143    247.36114   0.85516917     65597098   -13691.542    289.14778    5894.8041 
SHAKE stats (type/ave/delta) on step 96400
  2 1 1.16758e-06
  1 109.47 8.94712e-05
   96400   -6054.1673    7365.2274 0.0019848143    246.74267    0.2643422     65597098   -13687.722    268.32779    5858.2501 
SHAKE stats (type/ave/delta) on step 96500
  2 1 1.0176e-06
  1 109.47 8.74931e-05
   96500   -6008.0148    7372.6062 0.0019848143    246.98987    1.5039887     65597098   -13642.098    261.47692    5859.7635 
SHAKE stats (type/ave/delta) on step 96600
  2 1 1.07446e-06
  1 109.47 8.90208e-05
   96600   -6027.4908     7347.518 0.0019848143    246.14939 -0.041022322     65597098   -13645.758    270.74904    5842.9281 
SHAKE stats (type/ave/delta) on step 96700
  2 1 1.12234e-06
  1 109.47 8.64204e-05
   96700   -5994.5488    7333.3238 0.0019848143    245.67387  -0.50462442     65597098   -13618.853    290.98003    5846.8944 
SHAKE stats (type/ave/delta) on step 96800
  2 1 1.1261e-06
  1 109.47 8.43243e-05
   96800   -5980.0023    7431.7054 0.0019848143    248.96976    1.6432755     65597098   -13719.524    307.81671    5960.4307 
SHAKE stats (type/ave/delta) on step 96900
  2 1 1.10719e-06
  1 109.47 9.56129e-05
   96900    -5980.164    7410.9481 0.0019848143    248.27437    1.7078534     65597098   -13699.569    308.45707    5940.1851 
SHAKE stats (type/ave/delta) on step 97000
  2 1 1.21938e-06
  1 109.47 8.82379e-05
   97000   -6002.3344     7380.519 0.0019848143    247.25496    1.3503349     65597098   -13677.481    294.62759    5897.4928 
SHAKE stats (type/ave/delta) on step 97100
  2 1 1.11311e-06
  1 109.47 8.55694e-05
   97100   -6031.5344    7457.0589 0.0019848143    249.81913  -0.91916923     65597098   -13762.135    273.54219    5955.1239 
SHAKE stats (type/ave/delta) on step 97200
  2 1 1.09884e-06
  1 109.47 8.68564e-05
   97200   -5997.5678    7351.2457 0.0019848143    246.27428   0.91580186     65597098   -13611.865    263.05181    5840.0708 
SHAKE stats (type/ave/delta) on step 97300
  2 1 9.645e-07
  1 109.47 8.54456e-05
   97300   -5955.8957    7367.3877 0.0019848143    246.81505    1.0839132     65597098   -13591.097    267.81384     5860.334 
SHAKE stats (type/ave/delta) on step 97400
  2 1 1.03224e-06
  1 109.47 9.2781e-05
   97400   -5978.5368     7368.567 0.0019848143    246.85456    1.3034617     65597098   -13632.704    285.59999    5877.3865 
SHAKE stats (type/ave/delta) on step 97500
  2 1 1.04858e-06
  1 109.47 9.35059e-05
   97500   -5933.6095     7443.408 0.0019848143    249.36181   0.47996564     65597098   -13680.615     303.5976    5968.6791 
SHAKE stats (type/ave/delta) on step 97600
  2 1 1.27858e-06
  1 109.47 8.96076e-05
   97600   -6004.0582    7324.5128 0.0019848143    245.37869 0.0042619488     65597098   -13636.554    307.98251    5853.6028 
SHAKE stats (type/ave/delta) on step 97700
  2 1 1.21376e-06
  1 109.47 8.60206e-05
   97700   -6007.0258    7326.5054 0.0019848143    245.44545    0.7488947     65597098    -13631.63    298.09888    5846.7951 
SHAKE stats (type/ave/delta) on step 97800
  2 1 1.25228e-06
  1 109.47 8.22498e-05
   97800   -6011.9439    7362.8347 0.0019848143    246.66252   0.63351614     65597098   -13653.064    278.28501    5864.7299 
SHAKE stats (type/ave/delta) on step 97900
  2 1 1.09384e-06
  1 109.47 8.67781e-05
   97900    -6053.147    7402.5626 0.0019848143    247.99344    1.3915306     65597098   -13720.889    265.17908    5892.3525 
SHAKE stats (type/ave/delta) on step 98000
  2 1 1.07869e-06
  1 109.47 8.40521e-05
   98000   -6042.2439    7370.3731 0.0019848143    246.91506   -1.1342846     65597098    -13679.15    266.53292    5861.2819 
SHAKE stats (type/ave/delta) on step 98100
  2 1 1.11174e-06
  1 109.47 9.49957e-05
   98100   -6034.9495    7462.1443 0.0019848143    249.98949   0.36410165     65597098   -13777.354     280.2603     5965.072 
SHAKE stats (type/ave/delta) on step 98200
  2 1 1.0765e-06
  1 109.47 8.49194e-05
   98200   -5956.0431    7452.3973 0.0019848143    249.66296   0.95095046     65597098   -13707.392    298.95158    5972.1469 
SHAKE stats (type/ave/delta) on step 98300
  2 1 1.05873e-06
  1 109.47 8.64349e-05
   98300   -5990.6791    7395.0283 0.0019848143    247.74104   0.48760473     65597098   -13692.182    306.47446    5921.4037 
SHAKE stats (type/ave/delta) on step 98400
  2 1 1.13636e-06
  1 109.47 9.80695e-05
   98400   -5979.6233    7292.7392 0.0019848143    244.31425   0.88415692     65597098   -13574.057     301.6946    5814.9161 
SHAKE stats (type/ave/delta) on step 98500
  2 1 1.01154e-06
  1 109.47 0.000100142
   98500   -5983.4046    7520.4773 0.0019848143    251.94371   0.11752747     65597098   -13788.015    284.13276    6026.7415 
SHAKE stats (type/ave/delta) on step 98600
  2 1 1.14899e-06
  1 109.47 8.50616e-05
   98600   -6025.6976    7387.8055 0.0019848143    247.49907    1.6384077     65597098   -13683.415    269.91187    5881.3473 
SHAKE stats (type/ave/delta) on step 98700
  2 1 1.06456e-06
  1 109.47 9.2819e-05
   98700   -6055.3089    7382.4599 0.0019848143    247.31998   0.18996188     65597098   -13704.313    266.54418    5872.9024 
SHAKE stats (type/ave/delta) on step 98800
  2 1 9.98359e-07
  1 109.47 9.02049e-05
   98800   -6106.0746    7346.9608 0.0019848143    246.13073    1.1847152     65597098   -13729.388    276.35292    5845.7427 
SHAKE stats (type/ave/delta) on step 98900
  2 1 1.22325e-06
  1 109.47 7.92751e-05
   98900   -6046.8267    7363.4011 0.0019848143    246.68149   0.22299542     65597098   -13703.733    293.50504    5877.6289 
SHAKE stats (type/ave/delta) on step 99000
  2 1 1.05937e-06
  1 109.47 8.89319e-05
   99000   -6086.9805    7326.3784 0.0019848143    245.44119  -0.32385182     65597098   -13717.131    303.77261    5849.7137 
SHAKE stats (type/ave/delta) on step 99100
  2 1 1.02479e-06
  1 109.47 8.51862e-05
   99100   -6067.4156    7270.9681 0.0019848143    243.58489   0.99941352     65597098   -13641.441    303.05758    5793.7401 
SHAKE stats (type/ave/delta) on step 99200
  2 1 1.02129e-06
  1 109.47 8.56862e-05
   99200   -6041.8066    7363.8547 0.0019848143    246.69669   0.21748524     65597098   -13695.291    289.63035    5874.6294 
SHAKE stats (type/ave/delta) on step 99300
  2 1 1.15159e-06
  1 109.47 8.33868e-05
   99300   -6026.3116     7411.489 0.0019848143    248.29249    1.7851426     65597098   -13712.664    274.86462    5908.9298 
SHAKE stats (type/ave/delta) on step 99400
  2 1 1.00626e-06
  1 109.47 9.3863e-05
   99400   -6030.9873    7352.3137 0.0019848143    246.31005  -0.70638166     65597098   -13651.289    267.98956    5843.4189 
SHAKE stats (type/ave/delta) on step 99500
  2 1 9.66662e-07
  1 109.47 8.27376e-05
   99500    -6037.803    7443.8412 0.0019848143    249.37632   0.88185044     65597098   -13755.002    273.35948    5940.2948 
SHAKE stats (type/ave/delta) on step 99600
  2 1 1.09965e-06
  1 109.47 8.39371e-05
   99600    -6035.188    7364.4974 0.0019848143    246.71822   0.74857878     65597098   -13687.353    287.66992    5874.6315 
SHAKE stats (type/ave/delta) on step 99700
  2 1 1.0562e-06
  1 109.47 8.48291e-05
   99700   -6015.0948    7416.5235 0.0019848143    248.46115    1.2378132     65597098   -13730.927    299.31185    5937.4216 
SHAKE stats (type/ave/delta) on step 99800
  2 1 1.22906e-06
  1 109.47 8.62693e-05
   99800   -6018.8986    7364.5929 0.0019848143    246.72142     0.918313     65597098   -13687.068    303.58008    5889.4669 
SHAKE stats (type/ave/delta) on step 99900
  2 1 1.37104e-06
  1 109.47 8.51581e-05
   99900   -5988.8058    7411.3892 0.0019848143    248.28914   -1.5254962     65597098   -13695.067    294.87635    5928.5274 
SHAKE stats (type/ave/delta) on step 100000
  2 1 1.14755e-06
  1 109.47 8.19648e-05
  100000   -6008.0987    7388.8643 0.0019848143    247.53454    1.3549981     65597098   -13678.067    281.10895     5893.704 
  100080   -5965.9825    7425.5834 0.0019848143    248.76466   0.30569246     65597098   -13682.614    291.05256    5939.2564 
Loop time of 6744.41 on 9 procs for 90000 steps with 11015 atoms

Performance: 1.153 ns/day, 20.816 hours/ns, 13.344 timesteps/s
99.5% CPU use with 9 MPI tasks x 1 OpenMP threads

MPI task timing breakdown:
Section |  min time  |  avg time  |  max time  |%varavg| %total
---------------------------------------------------------------
Pair    | 2.2936     | 474.8      | 4245.7     |6118.4 |  7.04
Bond    | 0.95827    | 20.536     | 172.3      |1184.1 |  0.30
Kspace  | 1679.7     | 5329.5     | 5787.8     |1767.6 | 79.02
Neigh   | 575.18     | 576.01     | 576.18     |   1.3 |  8.54
Comm    | 4.8578     | 307.58     | 348.2      | 610.5 |  4.56
Output  | 9.9865     | 10.283     | 10.392     |   3.4 |  0.15
Modify  | 13.451     | 19.162     | 54.688     | 291.6 |  0.28
Other   |            | 6.517      |            |       |  0.10

Nlocal:    1223.89 ave 8959 max 229 min
Histogram: 8 0 0 0 0 0 0 0 0 1
Nghost:    112.667 ave 129 max 95 min
Histogram: 1 0 0 1 1 4 1 0 0 1
Neighs:    251843 ave 2.26428e+06 max 151 min
Histogram: 8 0 0 0 0 0 0 0 0 1

Total # of neighbors = 2266591
Ave neighs/atom = 205.773
Ave special neighs/atom = 3.44984
Neighbor list builds = 8488
Dangerous builds = 6381
Total wall time: 2:04:11
