LAMMPS (17 Nov 2015)
WARNING: OMP_NUM_THREADS environment is not set. (../comm.cpp:90)
  using 1 OpenMP thread(s) per MPI task


# ----------------- Init Section -----------------

include "system.in.init"


	units 			real
	atom_style 		full
	pair_style 		hybrid lj/cut/coul/long 10.0 300.0
	bond_style 		hybrid harmonic
	#pair_modify 	mix arithmetic

    # -- Default styles (for solo "SPCE" water) --
    units           real
    atom_style      full
    # (Hybrid force fields were not necessary but are used for portability.)
    pair_style      hybrid lj/cut/coul/long 10.0 300.0
    bond_style      hybrid harmonic
    angle_style     hybrid harmonic
    kspace_style    pppm 0.0001
    #pair_modify    mix arithmetic  # LEAVE THIS UNSPECIFIED!
    units real
    atom_style      full
    bond_style      hybrid harmonic
    angle_style     hybrid harmonic
    dihedral_style  hybrid opls
    improper_style  hybrid harmonic
    pair_style      hybrid lj/cut/coul/long 10.0 300.0
    pair_modify     mix geometric
    special_bonds   lj/coul 0.0 0.0 0.5
    kspace_style    pppm 0.0001


# ----------------- Atom Definition Section -----------------

read_data "system.data"
  orthogonal box = (0 0 0) to (1000 1000 1000)
  2 by 2 by 3 MPI processor grid
  reading atoms ...
  9274 atoms
  scanning bonds ...
  4 = max bonds/atom
  scanning angles ...
  6 = max angles/atom
  scanning dihedrals ...
  3 = max dihedrals/atom
  reading bonds ...
  7125 bonds
  reading angles ...
  8000 angles
  reading dihedrals ...
  3000 dihedrals
  4 = max # of 1-2 neighbors
  3 = max # of 1-3 neighbors
  4 = max # of 1-4 neighbors
  5 = max # of special neighbors

# ----------------- Settings Section -----------------

include "system.in.settings"


	pair_coeff 1 1 lj/cut/coul/long 0.073934 3.29
	bond_coeff   1     harmonic 3556.8447 1.09324
    bond_coeff   2     harmonic 600.0   1.0
    angle_coeff  1     harmonic 75.0    109.47
    pair_coeff   2 2  lj/cut/coul/long  0.1553  3.166
    pair_coeff   3 3  lj/cut/coul/long  0.0     0.0
    group spce type  2  3
3000 atoms in group spce
    fix fShakeSPCE spce shake 0.0001 10 100 b 2 a 1
  0 = # of size 2 clusters
  0 = # of size 3 clusters
  0 = # of size 4 clusters
  1000 = # of frozen angles
    # (Remember to "unfix" fShakeSPCE during minimization.)
    pair_coeff 4 4 lj/cut/coul/long 0.061 2.94
    pair_coeff 5 5 lj/cut/coul/long 0.118 3.905
    pair_coeff 6 6 lj/cut/coul/long 0.105 3.75
    pair_coeff 7 7 lj/cut/coul/long 0.21 2.96
    pair_coeff 8 8 lj/cut/coul/long 0.17 3.0
    pair_coeff 9 9 lj/cut/coul/long 0.16 3.91
    pair_coeff 10 10 lj/cut/coul/long 0.0 0.0
    pair_coeff 11 11 lj/cut/coul/long 0.294 3.73
    pair_coeff 12 12 lj/cut/coul/long 0.207 3.775
    pair_coeff 13 13 lj/cut/coul/long 0.175 3.905
    pair_coeff 14 14 lj/cut/coul/long 0.16 3.91
    pair_coeff 15 15 lj/cut/coul/long 0.145 3.96
    pair_coeff 16 16 lj/cut/coul/long 0.118 3.905
    pair_coeff 17 17 lj/cut/coul/long 0.14 3.85
    pair_coeff 18 18 lj/cut/coul/long 0.08 3.85
    pair_coeff 19 19 lj/cut/coul/long 0.115 3.8
    pair_coeff 20 20 lj/cut/coul/long 0.11 3.75
    pair_coeff 21 21 lj/cut/coul/long 0.05 3.8
    pair_coeff 22 22 lj/cut/coul/long 0.105 3.75
    pair_coeff 23 23 lj/cut/coul/long 0.17 3.07
    pair_coeff 24 24 lj/cut/coul/long 0.0 0.0
    pair_coeff 25 25 lj/cut/coul/long 0.207 3.775
    pair_coeff 26 26 lj/cut/coul/long 0.118 3.905
    pair_coeff 27 27 lj/cut/coul/long 0.25 3.7
    pair_coeff 28 28 lj/cut/coul/long 0.25 3.55
    pair_coeff 29 29 lj/cut/coul/long 0.25 3.55
    pair_coeff 30 30 lj/cut/coul/long 0.25 3.55
    pair_coeff 31 31 lj/cut/coul/long 0.0 0.0
    pair_coeff 32 32 lj/cut/coul/long 0.0 0.0
    pair_coeff 33 33 lj/cut/coul/long 0.207 3.775
    pair_coeff 34 34 lj/cut/coul/long 0.118 3.905
    pair_coeff 35 35 lj/cut/coul/long 0.17 3.8
    pair_coeff 36 36 lj/cut/coul/long 0.118 3.8
    pair_coeff 37 37 lj/cut/coul/long 0.17 3.8
    pair_coeff 38 38 lj/cut/coul/long 0.118 3.8
    pair_coeff 39 39 lj/cut/coul/long 0.17 3.2
    pair_coeff 40 40 lj/cut/coul/long 0.15 3.65
    pair_coeff 41 41 lj/cut/coul/long 0.207 3.775
    pair_coeff 42 42 lj/cut/coul/long 0.08 3.85
    pair_coeff 43 43 lj/cut/coul/long 0.05 3.8
    pair_coeff 44 44 lj/cut/coul/long 0.17 3.0
    pair_coeff 45 45 lj/cut/coul/long 0.17 3.8
    pair_coeff 46 46 lj/cut/coul/long 0.118 3.8
    pair_coeff 47 47 lj/cut/coul/long 0.118 3.8
    pair_coeff 48 48 lj/cut/coul/long 0.3 3.4
    pair_coeff 49 49 lj/cut/coul/long 0.08 3.8
    pair_coeff 50 50 lj/cut/coul/long 0.3 3.47
    pair_coeff 51 51 lj/cut/coul/long 0.05 3.8
    pair_coeff 52 52 lj/cut/coul/long 0.266 3.47
    pair_coeff 53 53 lj/cut/coul/long 0.395 3.56
    pair_coeff 54 54 lj/cut/coul/long 0.28 2.93
    pair_coeff 55 55 lj/cut/coul/long 0.16 3.81
    pair_coeff 56 56 lj/cut/coul/long 0.21 2.96
    pair_coeff 57 57 lj/cut/coul/long 0.17 3.25
    pair_coeff 58 58 lj/cut/coul/long 0.115 3.8
    pair_coeff 59 59 lj/cut/coul/long 0.17 3.8
    pair_coeff 60 60 lj/cut/coul/long 0.0 0.0
    pair_coeff 61 61 lj/cut/coul/long 0.02 2.556
    pair_coeff 62 62 lj/cut/coul/long 0.069 2.78
    pair_coeff 63 63 lj/cut/coul/long 0.2339 3.401
    pair_coeff 64 64 lj/cut/coul/long 0.317 3.624
    pair_coeff 65 65 lj/cut/coul/long 0.433 3.935
    pair_coeff 66 66 lj/cut/coul/long 0.1521 3.15061
    pair_coeff 67 67 lj/cut/coul/long 0.0 0.0
    pair_coeff 68 68 lj/cut/coul/long 0.155 3.15365
    pair_coeff 69 69 lj/cut/coul/long 0.0 0.0
    pair_coeff 70 70 lj/cut/coul/long 0.0 0.0
    pair_coeff 71 71 lj/cut/coul/long 0.15 3.176
    pair_coeff 72 72 lj/cut/coul/long 0.0 0.0
    pair_coeff 73 73 lj/cut/coul/long 0.1 3.27
    pair_coeff 74 74 lj/cut/coul/long 0.0 0.0
    pair_coeff 75 75 lj/cut/coul/long 0.0 0.0
    pair_coeff 76 76 lj/cut/coul/long 0.16 3.12
    pair_coeff 77 77 lj/cut/coul/long 0.0 0.0
    pair_coeff 78 78 lj/cut/coul/long 0.0 0.0
    pair_coeff 79 79 lj/cut/coul/long 0.1554 3.16557
    pair_coeff 80 80 lj/cut/coul/long 0.0 0.0
    pair_coeff 81 81 lj/cut/coul/long 0.17 3.42
    pair_coeff 82 82 lj/cut/coul/long 0.0 0.0
    pair_coeff 83 83 lj/cut/coul/long 0.066 3.5
    pair_coeff 84 84 lj/cut/coul/long 0.066 3.5
    pair_coeff 85 85 lj/cut/coul/long 0.066 3.5
    pair_coeff 86 86 lj/cut/coul/long 0.066 3.5
    pair_coeff 87 87 lj/cut/coul/long 0.066 3.5
    pair_coeff 88 88 lj/cut/coul/long 0.03 2.5
    pair_coeff 89 89 lj/cut/coul/long 0.076 3.55
    pair_coeff 90 90 lj/cut/coul/long 0.076 3.55
    pair_coeff 91 91 lj/cut/coul/long 0.076 3.55
    pair_coeff 92 92 lj/cut/coul/long 0.03 2.42
    pair_coeff 93 93 lj/cut/coul/long 0.07 3.55
    pair_coeff 94 94 lj/cut/coul/long 0.03 2.42
    pair_coeff 95 95 lj/cut/coul/long 0.07 3.55
    pair_coeff 96 96 lj/cut/coul/long 0.066 3.5
    pair_coeff 97 97 lj/cut/coul/long 0.066 3.5
    pair_coeff 98 98 lj/cut/coul/long 0.076 3.55
    pair_coeff 99 99 lj/cut/coul/long 0.17 3.12
    pair_coeff 100 100 lj/cut/coul/long 0.0 0.0
    pair_coeff 101 101 lj/cut/coul/long 0.03 2.5
    pair_coeff 102 102 lj/cut/coul/long 0.066 3.5
    pair_coeff 103 103 lj/cut/coul/long 0.066 3.5
    pair_coeff 104 104 lj/cut/coul/long 0.066 3.5
    pair_coeff 105 105 lj/cut/coul/long 0.066 3.5
    pair_coeff 106 106 lj/cut/coul/long 0.062 3.25
    pair_coeff 107 107 lj/cut/coul/long 0.17 3.07
    pair_coeff 108 108 lj/cut/coul/long 0.0 0.0
    pair_coeff 109 109 lj/cut/coul/long 0.061 2.94
    pair_coeff 110 110 lj/cut/coul/long 0.03 2.5
    pair_coeff 111 111 lj/cut/coul/long 0.07 3.55
    pair_coeff 112 112 lj/cut/coul/long 0.17 3.07
    pair_coeff 113 113 lj/cut/coul/long 0.0 0.0
    pair_coeff 114 114 lj/cut/coul/long 0.17 3.07
    pair_coeff 115 115 lj/cut/coul/long 0.0 0.0
    pair_coeff 116 116 lj/cut/coul/long 0.17 3.07
    pair_coeff 117 117 lj/cut/coul/long 0.0 0.0
    pair_coeff 118 118 lj/cut/coul/long 0.066 3.5
    pair_coeff 119 119 lj/cut/coul/long 0.066 3.5
    pair_coeff 120 120 lj/cut/coul/long 0.066 3.5
    pair_coeff 121 121 lj/cut/coul/long 0.03 2.5
    pair_coeff 122 122 lj/cut/coul/long 0.14 2.9
    pair_coeff 123 123 lj/cut/coul/long 0.076 3.55
    pair_coeff 124 124 lj/cut/coul/long 0.14 2.9
    pair_coeff 125 125 lj/cut/coul/long 0.14 2.9
    pair_coeff 126 126 lj/cut/coul/long 0.066 3.5
    pair_coeff 127 127 lj/cut/coul/long 0.066 3.5
    pair_coeff 128 128 lj/cut/coul/long 0.066 3.5
    pair_coeff 129 129 lj/cut/coul/long 0.066 3.5
    pair_coeff 130 130 lj/cut/coul/long 0.03 2.5
    pair_coeff 131 131 lj/cut/coul/long 0.14 2.9
    pair_coeff 132 132 lj/cut/coul/long 0.17 3.07
    pair_coeff 133 133 lj/cut/coul/long 0.0 0.0
    pair_coeff 134 134 lj/cut/coul/long 0.066 3.5
    pair_coeff 135 135 lj/cut/coul/long 0.03 2.5
    pair_coeff 136 136 lj/cut/coul/long 0.066 3.5
    pair_coeff 137 137 lj/cut/coul/long 0.03 2.5
    pair_coeff 138 138 lj/cut/coul/long 0.066 3.5
    pair_coeff 139 139 lj/cut/coul/long 0.03 2.5
    pair_coeff 140 140 lj/cut/coul/long 0.066 3.5
    pair_coeff 141 141 lj/cut/coul/long 0.03 2.5
    pair_coeff 142 142 lj/cut/coul/long 0.066 3.5
    pair_coeff 143 143 lj/cut/coul/long 0.066 3.5
    pair_coeff 144 144 lj/cut/coul/long 0.07 3.55
    pair_coeff 145 145 lj/cut/coul/long 0.25 3.55
    pair_coeff 146 146 lj/cut/coul/long 0.25 3.7
    pair_coeff 147 147 lj/cut/coul/long 0.25 3.55
    pair_coeff 148 148 lj/cut/coul/long 0.25 3.55
    pair_coeff 149 149 lj/cut/coul/long 0.0 0.0
    pair_coeff 150 150 lj/cut/coul/long 0.0 0.0
    pair_coeff 151 151 lj/cut/coul/long 0.066 3.5
    pair_coeff 152 152 lj/cut/coul/long 0.066 3.5
    pair_coeff 153 153 lj/cut/coul/long 0.066 3.5
    pair_coeff 154 154 lj/cut/coul/long 0.066 3.5
    pair_coeff 155 155 lj/cut/coul/long 0.066 3.5
    pair_coeff 156 156 lj/cut/coul/long 0.066 3.5
    pair_coeff 157 157 lj/cut/coul/long 0.066 3.5
    pair_coeff 158 158 lj/cut/coul/long 0.066 3.5
    pair_coeff 159 159 lj/cut/coul/long 0.066 3.5
    pair_coeff 160 160 lj/cut/coul/long 0.066 3.5
    pair_coeff 161 161 lj/cut/coul/long 0.066 3.5
    pair_coeff 162 162 lj/cut/coul/long 0.066 3.5
    pair_coeff 163 163 lj/cut/coul/long 0.066 3.5
    pair_coeff 164 164 lj/cut/coul/long 0.066 3.5
    pair_coeff 165 165 lj/cut/coul/long 0.066 3.5
    pair_coeff 166 166 lj/cut/coul/long 0.07 3.55
    pair_coeff 167 167 lj/cut/coul/long 0.25 3.55
    pair_coeff 168 168 lj/cut/coul/long 0.066 3.5
    pair_coeff 169 169 lj/cut/coul/long 0.066 3.5
    pair_coeff 170 170 lj/cut/coul/long 0.066 3.5
    pair_coeff 171 171 lj/cut/coul/long 0.3 3.4
    pair_coeff 172 172 lj/cut/coul/long 0.076 3.55
    pair_coeff 173 173 lj/cut/coul/long 0.07 3.55
    pair_coeff 174 174 lj/cut/coul/long 0.066 3.5
    pair_coeff 175 175 lj/cut/coul/long 0.066 3.5
    pair_coeff 176 176 lj/cut/coul/long 0.105 3.75
    pair_coeff 177 177 lj/cut/coul/long 0.105 3.75
    pair_coeff 178 178 lj/cut/coul/long 0.105 3.75
    pair_coeff 179 179 lj/cut/coul/long 0.105 3.75
    pair_coeff 180 180 lj/cut/coul/long 0.105 3.75
    pair_coeff 181 181 lj/cut/coul/long 0.21 2.96
    pair_coeff 182 182 lj/cut/coul/long 0.17 3.25
    pair_coeff 183 183 lj/cut/coul/long 0.17 3.25
    pair_coeff 184 184 lj/cut/coul/long 0.17 3.25
    pair_coeff 185 185 lj/cut/coul/long 0.0 0.0
    pair_coeff 186 186 lj/cut/coul/long 0.0 0.0
    pair_coeff 187 187 lj/cut/coul/long 0.066 3.5
    pair_coeff 188 188 lj/cut/coul/long 0.066 3.5
    pair_coeff 189 189 lj/cut/coul/long 0.066 3.5
    pair_coeff 190 190 lj/cut/coul/long 0.066 3.5
    pair_coeff 191 191 lj/cut/coul/long 0.066 3.5
    pair_coeff 192 192 lj/cut/coul/long 0.105 3.75
    pair_coeff 193 193 lj/cut/coul/long 0.21 2.96
    pair_coeff 194 194 lj/cut/coul/long 0.17 3.25
    pair_coeff 195 195 lj/cut/coul/long 0.0 0.0
    pair_coeff 196 196 lj/cut/coul/long 0.17 3.25
    pair_coeff 197 197 lj/cut/coul/long 0.105 3.75
    pair_coeff 198 198 lj/cut/coul/long 0.21 2.96
    pair_coeff 199 199 lj/cut/coul/long 0.0 0.0
    pair_coeff 200 200 lj/cut/coul/long 0.02 2.5
    pair_coeff 201 201 lj/cut/coul/long 0.066 3.5
    pair_coeff 202 202 lj/cut/coul/long 0.066 3.5
    pair_coeff 203 203 lj/cut/coul/long 0.066 3.5
    pair_coeff 204 204 lj/cut/coul/long 0.066 3.5
    pair_coeff 205 205 lj/cut/coul/long 0.07 3.55
    pair_coeff 206 206 lj/cut/coul/long 0.15 3.65
    pair_coeff 207 207 lj/cut/coul/long 0.17 3.2
    pair_coeff 208 208 lj/cut/coul/long 0.07 3.55
    pair_coeff 209 209 lj/cut/coul/long 0.3 3.4
    pair_coeff 210 210 lj/cut/coul/long 0.17 3.25
    pair_coeff 211 211 lj/cut/coul/long 0.07 3.55
    pair_coeff 212 212 lj/cut/coul/long 0.105 3.75
    pair_coeff 213 213 lj/cut/coul/long 0.21 2.96
    pair_coeff 214 214 lj/cut/coul/long 0.17 3.0
    pair_coeff 215 215 lj/cut/coul/long 0.0 0.0
    pair_coeff 216 216 lj/cut/coul/long 0.105 3.75
    pair_coeff 217 217 lj/cut/coul/long 0.21 2.96
    pair_coeff 218 218 lj/cut/coul/long 0.066 3.5
    pair_coeff 219 219 lj/cut/coul/long 0.066 3.5
    pair_coeff 220 220 lj/cut/coul/long 0.066 3.5
    pair_coeff 221 221 lj/cut/coul/long 0.066 3.5
    pair_coeff 222 222 lj/cut/coul/long 0.105 3.75
    pair_coeff 223 223 lj/cut/coul/long 0.21 2.96
    pair_coeff 224 224 lj/cut/coul/long 0.015 2.42
    pair_coeff 225 225 lj/cut/coul/long 0.105 3.75
    pair_coeff 226 226 lj/cut/coul/long 0.21 2.96
    pair_coeff 227 227 lj/cut/coul/long 0.015 2.42
    pair_coeff 228 228 lj/cut/coul/long 0.066 3.5
    pair_coeff 229 229 lj/cut/coul/long 0.066 3.5
    pair_coeff 230 230 lj/cut/coul/long 0.066 3.5
    pair_coeff 231 231 lj/cut/coul/long 0.066 3.5
    pair_coeff 232 232 lj/cut/coul/long 0.17 3.25
    pair_coeff 233 233 lj/cut/coul/long 0.17 3.25
    pair_coeff 234 234 lj/cut/coul/long 0.17 3.25
    pair_coeff 235 235 lj/cut/coul/long 0.0 0.0
    pair_coeff 236 236 lj/cut/coul/long 0.0 0.0
    pair_coeff 237 237 lj/cut/coul/long 0.066 3.5
    pair_coeff 238 238 lj/cut/coul/long 0.066 3.5
    pair_coeff 239 239 lj/cut/coul/long 0.066 3.5
    pair_coeff 240 240 lj/cut/coul/long 0.066 3.5
    pair_coeff 241 241 lj/cut/coul/long 0.066 3.5
    pair_coeff 242 242 lj/cut/coul/long 0.066 3.5
    pair_coeff 243 243 lj/cut/coul/long 0.066 3.5
    pair_coeff 244 244 lj/cut/coul/long 0.066 3.5
    pair_coeff 245 245 lj/cut/coul/long 0.066 3.5
    pair_coeff 246 246 lj/cut/coul/long 0.17 3.25
    pair_coeff 247 247 lj/cut/coul/long 0.0 0.0
    pair_coeff 248 248 lj/cut/coul/long 0.05 3.55
    pair_coeff 249 249 lj/cut/coul/long 0.17 3.25
    pair_coeff 250 250 lj/cut/coul/long 0.0 0.0
    pair_coeff 251 251 lj/cut/coul/long 0.066 3.5
    pair_coeff 252 252 lj/cut/coul/long 0.066 3.5
    pair_coeff 253 253 lj/cut/coul/long 0.066 3.5
    pair_coeff 254 254 lj/cut/coul/long 0.066 3.5
    pair_coeff 255 255 lj/cut/coul/long 0.17 3.25
    pair_coeff 256 256 lj/cut/coul/long 0.0 0.0
    pair_coeff 257 257 lj/cut/coul/long 0.17 3.25
    pair_coeff 258 258 lj/cut/coul/long 0.08 3.5
    pair_coeff 259 259 lj/cut/coul/long 0.17 3.25
    pair_coeff 260 260 lj/cut/coul/long 0.0 0.0
    pair_coeff 261 261 lj/cut/coul/long 0.08 3.5
    pair_coeff 262 262 lj/cut/coul/long 0.05 2.5
    pair_coeff 263 263 lj/cut/coul/long 0.08 3.5
    pair_coeff 264 264 lj/cut/coul/long 0.05 2.5
    pair_coeff 265 265 lj/cut/coul/long 0.17 3.25
    pair_coeff 266 266 lj/cut/coul/long 0.105 3.75
    pair_coeff 267 267 lj/cut/coul/long 0.17 3.25
    pair_coeff 268 268 lj/cut/coul/long 0.105 3.75
    pair_coeff 269 269 lj/cut/coul/long 0.08 3.5
    pair_coeff 270 270 lj/cut/coul/long 0.08 3.5
    pair_coeff 271 271 lj/cut/coul/long 0.0 0.0
    pair_coeff 272 272 lj/cut/coul/long 0.21 2.96
    pair_coeff 273 273 lj/cut/coul/long 0.0 0.0
    pair_coeff 274 274 lj/cut/coul/long 0.21 2.96
    pair_coeff 275 275 lj/cut/coul/long 0.05 2.5
    pair_coeff 276 276 lj/cut/coul/long 0.05 2.5
    pair_coeff 277 277 lj/cut/coul/long 0.08 3.5
    pair_coeff 278 278 lj/cut/coul/long 0.05 2.5
    pair_coeff 279 279 lj/cut/coul/long 0.17 3.25
    pair_coeff 280 280 lj/cut/coul/long 0.105 3.75
    pair_coeff 281 281 lj/cut/coul/long 0.17 3.25
    pair_coeff 282 282 lj/cut/coul/long 0.08 3.5
    pair_coeff 283 283 lj/cut/coul/long 0.08 3.5
    pair_coeff 284 284 lj/cut/coul/long 0.08 3.5
    pair_coeff 285 285 lj/cut/coul/long 0.0 0.0
    pair_coeff 286 286 lj/cut/coul/long 0.21 2.96
    pair_coeff 287 287 lj/cut/coul/long 0.17 3.25
    pair_coeff 288 288 lj/cut/coul/long 0.0 0.0
    pair_coeff 289 289 lj/cut/coul/long 0.0 0.0
    pair_coeff 290 290 lj/cut/coul/long 0.05 2.5
    pair_coeff 291 291 lj/cut/coul/long 0.05 2.5
    pair_coeff 292 292 lj/cut/coul/long 0.17 3.25
    pair_coeff 293 293 lj/cut/coul/long 0.08 3.5
    pair_coeff 294 294 lj/cut/coul/long 0.17 3.25
    pair_coeff 295 295 lj/cut/coul/long 0.08 3.5
    pair_coeff 296 296 lj/cut/coul/long 0.08 3.5
    pair_coeff 297 297 lj/cut/coul/long 0.08 3.5
    pair_coeff 298 298 lj/cut/coul/long 0.17 3.25
    pair_coeff 299 299 lj/cut/coul/long 0.08 3.5
    pair_coeff 300 300 lj/cut/coul/long 0.17 3.25
    pair_coeff 301 301 lj/cut/coul/long 0.05 2.5
    pair_coeff 302 302 lj/cut/coul/long 0.17 3.25
    pair_coeff 303 303 lj/cut/coul/long 0.0 0.0
    pair_coeff 304 304 lj/cut/coul/long 0.0 0.0
    pair_coeff 305 305 lj/cut/coul/long 0.05 2.5
    pair_coeff 306 306 lj/cut/coul/long 0.0 0.0
    pair_coeff 307 307 lj/cut/coul/long 0.17 3.25
    pair_coeff 308 308 lj/cut/coul/long 0.08 3.5
    pair_coeff 309 309 lj/cut/coul/long 0.17 3.25
    pair_coeff 310 310 lj/cut/coul/long 0.08 3.5
    pair_coeff 311 311 lj/cut/coul/long 0.08 3.5
    pair_coeff 312 312 lj/cut/coul/long 0.105 3.75
    pair_coeff 313 313 lj/cut/coul/long 0.0 0.0
    pair_coeff 314 314 lj/cut/coul/long 0.17 3.25
    pair_coeff 315 315 lj/cut/coul/long 0.0 0.0
    pair_coeff 316 316 lj/cut/coul/long 0.21 2.96
    pair_coeff 317 317 lj/cut/coul/long 0.08 3.5
    pair_coeff 318 318 lj/cut/coul/long 0.05 2.5
    pair_coeff 319 319 lj/cut/coul/long 0.08 3.5
    pair_coeff 320 320 lj/cut/coul/long 0.05 2.5
    pair_coeff 321 321 lj/cut/coul/long 0.08 3.5
    pair_coeff 322 322 lj/cut/coul/long 0.05 2.5
    pair_coeff 323 323 lj/cut/coul/long 0.17 3.25
    pair_coeff 324 324 lj/cut/coul/long 0.105 3.75
    pair_coeff 325 325 lj/cut/coul/long 0.17 3.25
    pair_coeff 326 326 lj/cut/coul/long 0.08 3.5
    pair_coeff 327 327 lj/cut/coul/long 0.08 3.5
    pair_coeff 328 328 lj/cut/coul/long 0.08 3.5
    pair_coeff 329 329 lj/cut/coul/long 0.0 0.0
    pair_coeff 330 330 lj/cut/coul/long 0.21 2.96
    pair_coeff 331 331 lj/cut/coul/long 0.0 0.0
    pair_coeff 332 332 lj/cut/coul/long 0.17 3.25
    pair_coeff 333 333 lj/cut/coul/long 0.0 0.0
    pair_coeff 334 334 lj/cut/coul/long 0.0 0.0
    pair_coeff 335 335 lj/cut/coul/long 0.05 2.5
    pair_coeff 336 336 lj/cut/coul/long 0.05 2.5
    pair_coeff 337 337 lj/cut/coul/long 0.08 3.5
    pair_coeff 338 338 lj/cut/coul/long 0.05 2.5
    pair_coeff 339 339 lj/cut/coul/long 0.2 3.74
    pair_coeff 340 340 lj/cut/coul/long 0.21 2.96
    pair_coeff 341 341 lj/cut/coul/long 0.17 3.0
    pair_coeff 342 342 lj/cut/coul/long 0.066 3.55
    pair_coeff 343 343 lj/cut/coul/long 0.08 3.5
    pair_coeff 344 344 lj/cut/coul/long 0.3 3.4
    pair_coeff 345 345 lj/cut/coul/long 0.076 3.55
    pair_coeff 346 346 lj/cut/coul/long 0.71 3.05
    pair_coeff 347 347 lj/cut/coul/long 0.71 4.02
    pair_coeff 348 348 lj/cut/coul/long 0.71 4.28
    pair_coeff 349 349 lj/cut/coul/long 0.71 4.81
    pair_coeff 350 350 lj/cut/coul/long 0.0005 5.34
    pair_coeff 351 351 lj/cut/coul/long 0.0005 2.87
    pair_coeff 352 352 lj/cut/coul/long 0.0005 4.07
    pair_coeff 353 353 lj/cut/coul/long 0.0005 5.17
    pair_coeff 354 354 lj/cut/coul/long 0.0005 5.6
    pair_coeff 355 355 lj/cut/coul/long 0.0005 6.2
    pair_coeff 356 356 lj/cut/coul/long 0.875044 1.644471
    pair_coeff 357 357 lj/cut/coul/long 0.449657 2.412031
    pair_coeff 358 358 lj/cut/coul/long 0.118226 3.102688
    pair_coeff 359 359 lj/cut/coul/long 0.047096 3.81661
    pair_coeff 360 360 lj/cut/coul/long 0.3 4.2
    pair_coeff 361 361 lj/cut/coul/long 0.05 2.5
    pair_coeff 362 362 lj/cut/coul/long 0.5 4.25
    pair_coeff 363 363 lj/cut/coul/long 0.3 4.2
    pair_coeff 364 364 lj/cut/coul/long 0.05 2.5
    pair_coeff 365 365 lj/cut/coul/long 0.25 3.15
    pair_coeff 366 366 lj/cut/coul/long 0.3 4.2
    pair_coeff 367 367 lj/cut/coul/long 0.05 2.5
    pair_coeff 368 368 lj/cut/coul/long 0.15 3.65
    pair_coeff 369 369 lj/cut/coul/long 0.25 3.4
    pair_coeff 370 370 lj/cut/coul/long 0.3 4.2
    pair_coeff 371 371 lj/cut/coul/long 0.05 2.5
    pair_coeff 372 372 lj/cut/coul/long 0.25 3.4
    pair_coeff 373 373 lj/cut/coul/long 0.05 2.5
    pair_coeff 374 374 lj/cut/coul/long 0.3 4.2
    pair_coeff 375 375 lj/cut/coul/long 0.05 2.5
    pair_coeff 376 376 lj/cut/coul/long 0.3 4.2
    pair_coeff 377 377 lj/cut/coul/long 0.05 2.5
    pair_coeff 378 378 lj/cut/coul/long 0.0 0.0
    pair_coeff 379 379 lj/cut/coul/long 0.25 3.2
    pair_coeff 380 380 lj/cut/coul/long 0.0 0.0
    pair_coeff 381 381 lj/cut/coul/long 0.4 2.81524
    pair_coeff 382 382 lj/cut/coul/long 0.2 3.11815
    pair_coeff 383 383 lj/cut/coul/long 0.14 2.9
    pair_coeff 384 384 lj/cut/coul/long 0.2 3.74
    pair_coeff 385 385 lj/cut/coul/long 0.2 3.15
    pair_coeff 386 386 lj/cut/coul/long 0.14 2.9
    pair_coeff 387 387 lj/cut/coul/long 0.066 3.5
    pair_coeff 388 388 lj/cut/coul/long 0.03 2.5
    pair_coeff 389 389 lj/cut/coul/long 0.2 3.74
    pair_coeff 390 390 lj/cut/coul/long 0.2 3.15
    pair_coeff 391 391 lj/cut/coul/long 0.14 2.9
    pair_coeff 392 392 lj/cut/coul/long 0.066 3.5
    pair_coeff 393 393 lj/cut/coul/long 0.03 2.5
    pair_coeff 394 394 lj/cut/coul/long 0.2 3.74
    pair_coeff 395 395 lj/cut/coul/long 0.2 3.15
    pair_coeff 396 396 lj/cut/coul/long 0.14 2.9
    pair_coeff 397 397 lj/cut/coul/long 0.066 3.5
    pair_coeff 398 398 lj/cut/coul/long 0.03 2.5
    pair_coeff 399 399 lj/cut/coul/long 0.066 3.5
    pair_coeff 400 400 lj/cut/coul/long 0.03 2.5
    pair_coeff 401 401 lj/cut/coul/long 0.07 3.55
    pair_coeff 402 402 lj/cut/coul/long 0.066 3.5
    pair_coeff 403 403 lj/cut/coul/long 0.03 2.5
    pair_coeff 404 404 lj/cut/coul/long 0.07 3.55
    pair_coeff 405 405 lj/cut/coul/long 0.066 3.5
    pair_coeff 406 406 lj/cut/coul/long 0.03 2.5
    pair_coeff 407 407 lj/cut/coul/long 0.07 3.55
    pair_coeff 408 408 lj/cut/coul/long 0.066 3.5
    pair_coeff 409 409 lj/cut/coul/long 0.105 3.75
    pair_coeff 410 410 lj/cut/coul/long 0.21 2.96
    pair_coeff 411 411 lj/cut/coul/long 0.17 3.0
    pair_coeff 412 412 lj/cut/coul/long 0.066 3.5
    pair_coeff 413 413 lj/cut/coul/long 0.015 2.42
    pair_coeff 414 414 lj/cut/coul/long 0.105 3.75
    pair_coeff 415 415 lj/cut/coul/long 0.105 3.75
    pair_coeff 416 416 lj/cut/coul/long 0.07 3.55
    pair_coeff 417 417 lj/cut/coul/long 0.17 3.0
    pair_coeff 418 418 lj/cut/coul/long 0.25 3.55
    pair_coeff 419 419 lj/cut/coul/long 0.17 2.96
    pair_coeff 420 420 lj/cut/coul/long 0.066 3.5
    pair_coeff 421 421 lj/cut/coul/long 0.03 2.5
    pair_coeff 422 422 lj/cut/coul/long 0.17 3.25
    pair_coeff 423 423 lj/cut/coul/long 0.0 0.0
    pair_coeff 424 424 lj/cut/coul/long 0.17 3.25
    pair_coeff 425 425 lj/cut/coul/long 0.0 0.0
    pair_coeff 426 426 lj/cut/coul/long 0.066 3.5
    pair_coeff 427 427 lj/cut/coul/long 0.03 2.5
    pair_coeff 428 428 lj/cut/coul/long 0.066 3.5
    pair_coeff 429 429 lj/cut/coul/long 0.03 2.5
    pair_coeff 430 430 lj/cut/coul/long 0.066 3.5
    pair_coeff 431 431 lj/cut/coul/long 0.03 2.5
    pair_coeff 432 432 lj/cut/coul/long 0.07 3.55
    pair_coeff 433 433 lj/cut/coul/long 0.07 3.55
    pair_coeff 434 434 lj/cut/coul/long 0.066 3.5
    pair_coeff 435 435 lj/cut/coul/long 0.066 3.5
    pair_coeff 436 436 lj/cut/coul/long 0.066 3.5
    pair_coeff 437 437 lj/cut/coul/long 0.25 3.55
    pair_coeff 438 438 lj/cut/coul/long 0.17 2.96
    pair_coeff 439 439 lj/cut/coul/long 0.395 3.56
    pair_coeff 440 440 lj/cut/coul/long 0.395 3.56
    pair_coeff 441 441 lj/cut/coul/long 0.28 2.93
    pair_coeff 442 442 lj/cut/coul/long 0.066 3.5
    pair_coeff 443 443 lj/cut/coul/long 0.066 3.5
    pair_coeff 444 444 lj/cut/coul/long 0.07 3.55
    pair_coeff 445 445 lj/cut/coul/long 0.07 3.55
    pair_coeff 446 446 lj/cut/coul/long 0.07 3.55
    pair_coeff 447 447 lj/cut/coul/long 0.17 3.25
    pair_coeff 448 448 lj/cut/coul/long 0.0 0.0
    pair_coeff 449 449 lj/cut/coul/long 0.066 3.5
    pair_coeff 450 450 lj/cut/coul/long 0.07 3.55
    pair_coeff 451 451 lj/cut/coul/long 0.07 3.55
    pair_coeff 452 452 lj/cut/coul/long 0.07 3.55
    pair_coeff 453 453 lj/cut/coul/long 0.07 3.55
    pair_coeff 454 454 lj/cut/coul/long 0.07 3.55
    pair_coeff 455 455 lj/cut/coul/long 0.17 3.25
    pair_coeff 456 456 lj/cut/coul/long 0.17 3.25
    pair_coeff 457 457 lj/cut/coul/long 0.0 0.0
    pair_coeff 458 458 lj/cut/coul/long 0.07 3.55
    pair_coeff 459 459 lj/cut/coul/long 0.066 3.5
    pair_coeff 460 460 lj/cut/coul/long 0.066 3.5
    pair_coeff 461 461 lj/cut/coul/long 0.076 3.55
    pair_coeff 462 462 lj/cut/coul/long 0.076 3.55
    pair_coeff 463 463 lj/cut/coul/long 0.07 3.55
    pair_coeff 464 464 lj/cut/coul/long 0.17 3.25
    pair_coeff 465 465 lj/cut/coul/long 0.07 3.55
    pair_coeff 466 466 lj/cut/coul/long 0.07 3.55
    pair_coeff 467 467 lj/cut/coul/long 0.07 3.55
    pair_coeff 468 468 lj/cut/coul/long 0.03 2.42
    pair_coeff 469 469 lj/cut/coul/long 0.03 2.42
    pair_coeff 470 470 lj/cut/coul/long 0.03 2.42
    pair_coeff 471 471 lj/cut/coul/long 0.17 3.25
    pair_coeff 472 472 lj/cut/coul/long 0.07 3.55
    pair_coeff 473 473 lj/cut/coul/long 0.03 2.42
    pair_coeff 474 474 lj/cut/coul/long 0.17 3.25
    pair_coeff 475 475 lj/cut/coul/long 0.07 3.55
    pair_coeff 476 476 lj/cut/coul/long 0.07 3.55
    pair_coeff 477 477 lj/cut/coul/long 0.07 3.55
    pair_coeff 478 478 lj/cut/coul/long 0.03 2.42
    pair_coeff 479 479 lj/cut/coul/long 0.03 2.42
    pair_coeff 480 480 lj/cut/coul/long 0.03 2.42
    pair_coeff 481 481 lj/cut/coul/long 0.17 3.25
    pair_coeff 482 482 lj/cut/coul/long 0.07 3.55
    pair_coeff 483 483 lj/cut/coul/long 0.07 3.55
    pair_coeff 484 484 lj/cut/coul/long 0.03 2.42
    pair_coeff 485 485 lj/cut/coul/long 0.03 2.42
    pair_coeff 486 486 lj/cut/coul/long 0.17 3.25
    pair_coeff 487 487 lj/cut/coul/long 0.07 3.55
    pair_coeff 488 488 lj/cut/coul/long 0.07 3.55
    pair_coeff 489 489 lj/cut/coul/long 0.0 0.0
    pair_coeff 490 490 lj/cut/coul/long 0.03 2.42
    pair_coeff 491 491 lj/cut/coul/long 0.03 2.42
    pair_coeff 492 492 lj/cut/coul/long 0.17 3.25
    pair_coeff 493 493 lj/cut/coul/long 0.17 3.25
    pair_coeff 494 494 lj/cut/coul/long 0.07 3.55
    pair_coeff 495 495 lj/cut/coul/long 0.07 3.55
    pair_coeff 496 496 lj/cut/coul/long 0.07 3.55
    pair_coeff 497 497 lj/cut/coul/long 0.0 0.0
    pair_coeff 498 498 lj/cut/coul/long 0.03 2.42
    pair_coeff 499 499 lj/cut/coul/long 0.03 2.42
    pair_coeff 500 500 lj/cut/coul/long 0.03 2.42
    pair_coeff 501 501 lj/cut/coul/long 0.17 3.25
    pair_coeff 502 502 lj/cut/coul/long 0.07 3.55
    pair_coeff 503 503 lj/cut/coul/long 0.17 3.25
    pair_coeff 504 504 lj/cut/coul/long 0.07 3.55
    pair_coeff 505 505 lj/cut/coul/long 0.07 3.55
    pair_coeff 506 506 lj/cut/coul/long 0.0 0.0
    pair_coeff 507 507 lj/cut/coul/long 0.03 2.42
    pair_coeff 508 508 lj/cut/coul/long 0.03 2.42
    pair_coeff 509 509 lj/cut/coul/long 0.03 2.42
    pair_coeff 510 510 lj/cut/coul/long 0.14 2.9
    pair_coeff 511 511 lj/cut/coul/long 0.07 3.55
    pair_coeff 512 512 lj/cut/coul/long 0.076 3.55
    pair_coeff 513 513 lj/cut/coul/long 0.03 2.42
    pair_coeff 514 514 lj/cut/coul/long 0.03 2.42
    pair_coeff 515 515 lj/cut/coul/long 0.14 2.9
    pair_coeff 516 516 lj/cut/coul/long 0.07 3.55
    pair_coeff 517 517 lj/cut/coul/long 0.17 3.25
    pair_coeff 518 518 lj/cut/coul/long 0.07 3.55
    pair_coeff 519 519 lj/cut/coul/long 0.07 3.55
    pair_coeff 520 520 lj/cut/coul/long 0.03 2.42
    pair_coeff 521 521 lj/cut/coul/long 0.03 2.42
    pair_coeff 522 522 lj/cut/coul/long 0.03 2.42
    pair_coeff 523 523 lj/cut/coul/long 0.14 2.9
    pair_coeff 524 524 lj/cut/coul/long 0.17 3.25
    pair_coeff 525 525 lj/cut/coul/long 0.07 3.55
    pair_coeff 526 526 lj/cut/coul/long 0.07 3.55
    pair_coeff 527 527 lj/cut/coul/long 0.07 3.55
    pair_coeff 528 528 lj/cut/coul/long 0.03 2.42
    pair_coeff 529 529 lj/cut/coul/long 0.03 2.42
    pair_coeff 530 530 lj/cut/coul/long 0.03 2.42
    pair_coeff 531 531 lj/cut/coul/long 0.17 3.25
    pair_coeff 532 532 lj/cut/coul/long 0.07 3.55
    pair_coeff 533 533 lj/cut/coul/long 0.07 3.55
    pair_coeff 534 534 lj/cut/coul/long 0.07 3.55
    pair_coeff 535 535 lj/cut/coul/long 0.07 3.55
    pair_coeff 536 536 lj/cut/coul/long 0.07 3.55
    pair_coeff 537 537 lj/cut/coul/long 0.07 3.55
    pair_coeff 538 538 lj/cut/coul/long 0.07 3.55
    pair_coeff 539 539 lj/cut/coul/long 0.07 3.55
    pair_coeff 540 540 lj/cut/coul/long 0.0 0.0
    pair_coeff 541 541 lj/cut/coul/long 0.03 2.42
    pair_coeff 542 542 lj/cut/coul/long 0.03 2.42
    pair_coeff 543 543 lj/cut/coul/long 0.03 2.42
    pair_coeff 544 544 lj/cut/coul/long 0.03 2.42
    pair_coeff 545 545 lj/cut/coul/long 0.03 2.42
    pair_coeff 546 546 lj/cut/coul/long 0.03 2.42
    pair_coeff 547 547 lj/cut/coul/long 0.17 3.25
    pair_coeff 548 548 lj/cut/coul/long 0.07 3.55
    pair_coeff 549 549 lj/cut/coul/long 0.07 3.55
    pair_coeff 550 550 lj/cut/coul/long 0.07 3.55
    pair_coeff 551 551 lj/cut/coul/long 0.07 3.55
    pair_coeff 552 552 lj/cut/coul/long 0.07 3.55
    pair_coeff 553 553 lj/cut/coul/long 0.07 3.55
    pair_coeff 554 554 lj/cut/coul/long 0.07 3.55
    pair_coeff 555 555 lj/cut/coul/long 0.07 3.55
    pair_coeff 556 556 lj/cut/coul/long 0.07 3.55
    pair_coeff 557 557 lj/cut/coul/long 0.03 2.42
    pair_coeff 558 558 lj/cut/coul/long 0.03 2.42
    pair_coeff 559 559 lj/cut/coul/long 0.03 2.42
    pair_coeff 560 560 lj/cut/coul/long 0.03 2.42
    pair_coeff 561 561 lj/cut/coul/long 0.03 2.42
    pair_coeff 562 562 lj/cut/coul/long 0.03 2.42
    pair_coeff 563 563 lj/cut/coul/long 0.03 2.42
    pair_coeff 564 564 lj/cut/coul/long 0.17 3.25
    pair_coeff 565 565 lj/cut/coul/long 0.07 3.55
    pair_coeff 566 566 lj/cut/coul/long 0.17 3.25
    pair_coeff 567 567 lj/cut/coul/long 0.07 3.55
    pair_coeff 568 568 lj/cut/coul/long 0.07 3.55
    pair_coeff 569 569 lj/cut/coul/long 0.07 3.55
    pair_coeff 570 570 lj/cut/coul/long 0.17 3.25
    pair_coeff 571 571 lj/cut/coul/long 0.07 3.55
    pair_coeff 572 572 lj/cut/coul/long 0.17 3.25
    pair_coeff 573 573 lj/cut/coul/long 0.03 2.42
    pair_coeff 574 574 lj/cut/coul/long 0.03 2.42
    pair_coeff 575 575 lj/cut/coul/long 0.03 2.42
    pair_coeff 576 576 lj/cut/coul/long 0.0 0.0
    pair_coeff 577 577 lj/cut/coul/long 0.25 3.55
    pair_coeff 578 578 lj/cut/coul/long 0.07 3.55
    pair_coeff 579 579 lj/cut/coul/long 0.17 3.25
    pair_coeff 580 580 lj/cut/coul/long 0.07 3.55
    pair_coeff 581 581 lj/cut/coul/long 0.07 3.55
    pair_coeff 582 582 lj/cut/coul/long 0.03 2.42
    pair_coeff 583 583 lj/cut/coul/long 0.03 2.42
    pair_coeff 584 584 lj/cut/coul/long 0.03 2.42
    pair_coeff 585 585 lj/cut/coul/long 0.17 3.25
    pair_coeff 586 586 lj/cut/coul/long 0.07 3.55
    pair_coeff 587 587 lj/cut/coul/long 0.03 2.42
    pair_coeff 588 588 lj/cut/coul/long 0.07 3.55
    pair_coeff 589 589 lj/cut/coul/long 0.066 3.5
    pair_coeff 590 590 lj/cut/coul/long 0.17 3.25
    pair_coeff 591 591 lj/cut/coul/long 0.07 3.55
    pair_coeff 592 592 lj/cut/coul/long 0.07 3.55
    pair_coeff 593 593 lj/cut/coul/long 0.07 3.55
    pair_coeff 594 594 lj/cut/coul/long 0.07 3.55
    pair_coeff 595 595 lj/cut/coul/long 0.07 3.55
    pair_coeff 596 596 lj/cut/coul/long 0.07 3.55
    pair_coeff 597 597 lj/cut/coul/long 0.03 2.42
    pair_coeff 598 598 lj/cut/coul/long 0.03 2.42
    pair_coeff 599 599 lj/cut/coul/long 0.03 2.42
    pair_coeff 600 600 lj/cut/coul/long 0.03 2.42
    pair_coeff 601 601 lj/cut/coul/long 0.17 3.25
    pair_coeff 602 602 lj/cut/coul/long 0.07 3.55
    pair_coeff 603 603 lj/cut/coul/long 0.17 3.25
    pair_coeff 604 604 lj/cut/coul/long 0.07 3.55
    pair_coeff 605 605 lj/cut/coul/long 0.07 3.55
    pair_coeff 606 606 lj/cut/coul/long 0.066 3.5
    pair_coeff 607 607 lj/cut/coul/long 0.03 2.42
    pair_coeff 608 608 lj/cut/coul/long 0.03 2.42
    pair_coeff 609 609 lj/cut/coul/long 0.03 2.42
    pair_coeff 610 610 lj/cut/coul/long 0.03 2.5
    pair_coeff 611 611 lj/cut/coul/long 0.066 3.5
    pair_coeff 612 612 lj/cut/coul/long 0.066 3.5
    pair_coeff 613 613 lj/cut/coul/long 0.066 3.5
    pair_coeff 614 614 lj/cut/coul/long 0.066 3.5
    pair_coeff 615 615 lj/cut/coul/long 0.066 3.5
    pair_coeff 616 616 lj/cut/coul/long 0.066 3.5
    pair_coeff 617 617 lj/cut/coul/long 0.066 3.5
    pair_coeff 618 618 lj/cut/coul/long 0.066 3.5
    pair_coeff 619 619 lj/cut/coul/long 0.066 3.5
    pair_coeff 620 620 lj/cut/coul/long 0.066 3.5
    pair_coeff 621 621 lj/cut/coul/long 0.066 3.5
    pair_coeff 622 622 lj/cut/coul/long 0.066 3.5
    pair_coeff 623 623 lj/cut/coul/long 0.066 3.5
    pair_coeff 624 624 lj/cut/coul/long 0.066 3.5
    pair_coeff 625 625 lj/cut/coul/long 0.066 3.5
    pair_coeff 626 626 lj/cut/coul/long 0.25 3.55
    pair_coeff 627 627 lj/cut/coul/long 0.0 0.0
    pair_coeff 628 628 lj/cut/coul/long 0.07 3.55
    pair_coeff 629 629 lj/cut/coul/long 0.105 3.75
    pair_coeff 630 630 lj/cut/coul/long 0.17 3.25
    pair_coeff 631 631 lj/cut/coul/long 0.066 3.5
    pair_coeff 632 632 lj/cut/coul/long 0.066 3.5
    pair_coeff 633 633 lj/cut/coul/long 0.066 3.5
    pair_coeff 634 634 lj/cut/coul/long 0.07 3.55
    pair_coeff 635 635 lj/cut/coul/long 0.07 3.55
    pair_coeff 636 636 lj/cut/coul/long 0.07 3.55
    pair_coeff 637 637 lj/cut/coul/long 0.07 3.55
    pair_coeff 638 638 lj/cut/coul/long 0.07 3.55
    pair_coeff 639 639 lj/cut/coul/long 0.07 3.55
    pair_coeff 640 640 lj/cut/coul/long 0.25 3.55
    pair_coeff 641 641 lj/cut/coul/long 0.054 3.473
    pair_coeff 642 642 lj/cut/coul/long 0.05 3.3
    pair_coeff 643 643 lj/cut/coul/long 0.05 3.3
    pair_coeff 644 644 lj/cut/coul/long 0.076 3.55
    pair_coeff 645 645 lj/cut/coul/long 0.066 3.5
    pair_coeff 646 646 lj/cut/coul/long 0.03 2.5
    pair_coeff 647 647 lj/cut/coul/long 0.06 3.75
    pair_coeff 648 648 lj/cut/coul/long 0.054 3.473
    pair_coeff 649 649 lj/cut/coul/long 0.05 3.3
    pair_coeff 650 650 lj/cut/coul/long 0.05 3.3
    pair_coeff 651 651 lj/cut/coul/long 0.04 2.95
    pair_coeff 652 652 lj/cut/coul/long 0.076 3.55
    pair_coeff 653 653 lj/cut/coul/long 0.3 3.4
    pair_coeff 654 654 lj/cut/coul/long 0.03 2.42
    pair_coeff 655 655 lj/cut/coul/long 0.066 3.5
    pair_coeff 656 656 lj/cut/coul/long 0.066 3.5
    pair_coeff 657 657 lj/cut/coul/long 0.066 3.5
    pair_coeff 658 658 lj/cut/coul/long 0.07 3.55
    pair_coeff 659 659 lj/cut/coul/long 0.03 2.42
    pair_coeff 660 660 lj/cut/coul/long 0.07 3.55
    pair_coeff 661 661 lj/cut/coul/long 0.03 2.42
    pair_coeff 662 662 lj/cut/coul/long 0.07 3.55
    pair_coeff 663 663 lj/cut/coul/long 0.061 2.85
    pair_coeff 664 664 lj/cut/coul/long 0.07 3.55
    pair_coeff 665 665 lj/cut/coul/long 0.061 2.85
    pair_coeff 666 666 lj/cut/coul/long 0.47 3.47
    pair_coeff 667 667 lj/cut/coul/long 0.118 3.905
    pair_coeff 668 668 lj/cut/coul/long 0.07 3.55
    pair_coeff 669 669 lj/cut/coul/long 0.062 3.25
    pair_coeff 670 670 lj/cut/coul/long 0.061 2.94
    pair_coeff 671 671 lj/cut/coul/long 0.07 3.55
    pair_coeff 672 672 lj/cut/coul/long 0.061 2.85
    pair_coeff 673 673 lj/cut/coul/long 0.07 3.55
    pair_coeff 674 674 lj/cut/coul/long 0.47 3.47
    pair_coeff 675 675 lj/cut/coul/long 0.07 3.55
    pair_coeff 676 676 lj/cut/coul/long 0.6 3.75
    pair_coeff 677 677 lj/cut/coul/long 0.066 3.5
    pair_coeff 678 678 lj/cut/coul/long 0.25 3.55
    pair_coeff 679 679 lj/cut/coul/long 0.07 3.55
    pair_coeff 680 680 lj/cut/coul/long 0.07 3.55
    pair_coeff 681 681 lj/cut/coul/long 0.07 3.55
    pair_coeff 682 682 lj/cut/coul/long 0.07 3.55
    pair_coeff 683 683 lj/cut/coul/long 0.07 3.55
    pair_coeff 684 684 lj/cut/coul/long 0.03 2.42
    pair_coeff 685 685 lj/cut/coul/long 0.03 2.42
    pair_coeff 686 686 lj/cut/coul/long 0.05 3.55
    pair_coeff 687 687 lj/cut/coul/long 0.17 3.25
    pair_coeff 688 688 lj/cut/coul/long 0.0 0.0
    pair_coeff 689 689 lj/cut/coul/long 0.0 0.0
    pair_coeff 690 690 lj/cut/coul/long 0.03 2.42
    pair_coeff 691 691 lj/cut/coul/long 0.066 3.5
    pair_coeff 692 692 lj/cut/coul/long 0.066 3.5
    pair_coeff 693 693 lj/cut/coul/long 0.17 3.25
    pair_coeff 694 694 lj/cut/coul/long 0.17 3.25
    pair_coeff 695 695 lj/cut/coul/long 0.17 3.25
    pair_coeff 696 696 lj/cut/coul/long 0.05 3.55
    pair_coeff 697 697 lj/cut/coul/long 0.17 3.2
    pair_coeff 698 698 lj/cut/coul/long 0.066 3.3
    pair_coeff 699 699 lj/cut/coul/long 0.066 3.3
    pair_coeff 700 700 lj/cut/coul/long 0.066 3.3
    pair_coeff 701 701 lj/cut/coul/long 0.066 3.3
    pair_coeff 702 702 lj/cut/coul/long 0.066 3.3
    pair_coeff 703 703 lj/cut/coul/long 0.015 2.5
    pair_coeff 704 704 lj/cut/coul/long 0.12 3.25
    pair_coeff 705 705 lj/cut/coul/long 0.17 2.96
    pair_coeff 706 706 lj/cut/coul/long 0.066 3.5
    pair_coeff 707 707 lj/cut/coul/long 0.015 2.5
    pair_coeff 708 708 lj/cut/coul/long 0.066 3.5
    pair_coeff 709 709 lj/cut/coul/long 0.066 3.5
    pair_coeff 710 710 lj/cut/coul/long 0.066 3.5
    pair_coeff 711 711 lj/cut/coul/long 0.12 3.25
    pair_coeff 712 712 lj/cut/coul/long 0.07 3.55
    pair_coeff 713 713 lj/cut/coul/long 0.066 3.3
    pair_coeff 714 714 lj/cut/coul/long 0.17 3.25
    pair_coeff 715 715 lj/cut/coul/long 0.21 2.96
    pair_coeff 716 716 lj/cut/coul/long 0.105 3.75
    pair_coeff 717 717 lj/cut/coul/long 0.17 3.0
    pair_coeff 718 718 lj/cut/coul/long 0.066 3.5
    pair_coeff 719 719 lj/cut/coul/long 0.066 3.5
    pair_coeff 720 720 lj/cut/coul/long 0.066 3.5
    pair_coeff 721 721 lj/cut/coul/long 0.015 2.42
    pair_coeff 722 722 lj/cut/coul/long 0.015 2.42
    pair_coeff 723 723 lj/cut/coul/long 0.015 2.42
    pair_coeff 724 724 lj/cut/coul/long 0.14 2.9
    pair_coeff 725 725 lj/cut/coul/long 0.2 3.74
    pair_coeff 726 726 lj/cut/coul/long 0.066 3.5
    pair_coeff 727 727 lj/cut/coul/long 0.066 3.5
    pair_coeff 728 728 lj/cut/coul/long 0.03 2.5
    pair_coeff 729 729 lj/cut/coul/long 0.2 3.74
    pair_coeff 730 730 lj/cut/coul/long 0.061 3.1181
    pair_coeff 731 731 lj/cut/coul/long 0.17 3.15
    pair_coeff 732 732 lj/cut/coul/long 0.21 2.86
    pair_coeff 733 733 lj/cut/coul/long 0.17 3.3
    pair_coeff 734 734 lj/cut/coul/long 0.17 3.3
    pair_coeff 735 735 lj/cut/coul/long 0.17 3.3
    pair_coeff 736 736 lj/cut/coul/long 0.066 3.5
    pair_coeff 737 737 lj/cut/coul/long 0.066 3.5
    pair_coeff 738 738 lj/cut/coul/long 0.066 3.5
    pair_coeff 739 739 lj/cut/coul/long 0.066 3.5
    pair_coeff 740 740 lj/cut/coul/long 0.066 3.5
    pair_coeff 741 741 lj/cut/coul/long 0.066 3.5
    pair_coeff 742 742 lj/cut/coul/long 0.0 0.0
    pair_coeff 743 743 lj/cut/coul/long 0.0 0.0
    pair_coeff 744 744 lj/cut/coul/long 0.015 2.5
    pair_coeff 745 745 lj/cut/coul/long 0.066 3.5
    pair_coeff 746 746 lj/cut/coul/long 0.066 3.5
    pair_coeff 747 747 lj/cut/coul/long 0.066 3.5
    pair_coeff 748 748 lj/cut/coul/long 0.066 3.5
    pair_coeff 749 749 lj/cut/coul/long 0.07 3.55
    pair_coeff 750 750 lj/cut/coul/long 0.07 3.55
    pair_coeff 751 751 lj/cut/coul/long 0.07 3.55
    pair_coeff 752 752 lj/cut/coul/long 0.066 3.5
    pair_coeff 753 753 lj/cut/coul/long 0.066 3.5
    pair_coeff 754 754 lj/cut/coul/long 0.066 3.5
    pair_coeff 755 755 lj/cut/coul/long 0.066 3.5
    pair_coeff 756 756 lj/cut/coul/long 0.066 3.5
    pair_coeff 757 757 lj/cut/coul/long 0.066 3.5
    pair_coeff 758 758 lj/cut/coul/long 0.086 3.3
    pair_coeff 759 759 lj/cut/coul/long 0.015 2.42
    pair_coeff 760 760 lj/cut/coul/long 0.21 3.3
    pair_coeff 761 761 lj/cut/coul/long 0.135 3.3
    pair_coeff 762 762 lj/cut/coul/long 0.1 3.3
    pair_coeff 763 763 lj/cut/coul/long 0.015 2.5
    pair_coeff 764 764 lj/cut/coul/long 0.066 3.5
    pair_coeff 765 765 lj/cut/coul/long 0.066 3.5
    pair_coeff 766 766 lj/cut/coul/long 0.066 3.5
    pair_coeff 767 767 lj/cut/coul/long 0.17 3.12
    pair_coeff 768 768 lj/cut/coul/long 0.0 0.0
    pair_coeff 769 769 lj/cut/coul/long 0.17 3.25
    pair_coeff 770 770 lj/cut/coul/long 0.17 3.25
    pair_coeff 771 771 lj/cut/coul/long 0.17 3.25
    pair_coeff 772 772 lj/cut/coul/long 0.21 3.3
    pair_coeff 773 773 lj/cut/coul/long 0.17 3.25
    pair_coeff 774 774 lj/cut/coul/long 0.0 0.0
    pair_coeff 775 775 lj/cut/coul/long 0.066 3.5
    pair_coeff 776 776 lj/cut/coul/long 0.066 3.5
    pair_coeff 777 777 lj/cut/coul/long 0.066 3.5
    pair_coeff 778 778 lj/cut/coul/long 0.066 3.5
    pair_coeff 779 779 lj/cut/coul/long 0.07 3.55
    pair_coeff 780 780 lj/cut/coul/long 0.076 3.55
    pair_coeff 781 781 lj/cut/coul/long 0.07 3.55
    pair_coeff 782 782 lj/cut/coul/long 0.07 3.55
    pair_coeff 783 783 lj/cut/coul/long 0.03 2.5
    pair_coeff 784 784 lj/cut/coul/long 0.066 3.5
    pair_coeff 785 785 lj/cut/coul/long 0.105 3.75
    pair_coeff 786 786 lj/cut/coul/long 0.17 3.25
    pair_coeff 787 787 lj/cut/coul/long 0.21 2.96
    pair_coeff 788 788 lj/cut/coul/long 0.0 0.0
    pair_coeff 789 789 lj/cut/coul/long 0.061 2.94
    pair_coeff 790 790 lj/cut/coul/long 0.066 3.5
    pair_coeff 791 791 lj/cut/coul/long 0.03 2.5
    pair_coeff 792 792 lj/cut/coul/long 0.066 3.5
    pair_coeff 793 793 lj/cut/coul/long 0.066 3.5
    pair_coeff 794 794 lj/cut/coul/long 0.066 3.5
    pair_coeff 795 795 lj/cut/coul/long 0.066 3.5
    pair_coeff 796 796 lj/cut/coul/long 0.066 3.5
    pair_coeff 797 797 lj/cut/coul/long 0.097 3.5
    pair_coeff 798 798 lj/cut/coul/long 0.053 2.95
    pair_coeff 799 799 lj/cut/coul/long 0.062 3.25
    pair_coeff 800 800 lj/cut/coul/long 0.03 2.5
    pair_coeff 801 801 lj/cut/coul/long 0.066 3.5
    pair_coeff 802 802 lj/cut/coul/long 0.066 3.5
    pair_coeff 803 803 lj/cut/coul/long 0.3 3.4
    pair_coeff 804 804 lj/cut/coul/long 0.066 3.5
    pair_coeff 805 805 lj/cut/coul/long 0.03 2.5
    pair_coeff 806 806 lj/cut/coul/long 0.066 3.5
    pair_coeff 807 807 lj/cut/coul/long 0.066 3.5
    pair_coeff 808 808 lj/cut/coul/long 0.47 3.47
    pair_coeff 809 809 lj/cut/coul/long 0.066 3.5
    pair_coeff 810 810 lj/cut/coul/long 0.03 2.5
    pair_coeff 811 811 lj/cut/coul/long 0.066 3.5
    pair_coeff 812 812 lj/cut/coul/long 0.066 3.5
    pair_coeff 813 813 lj/cut/coul/long 0.061 2.94
    pair_coeff 814 814 lj/cut/coul/long 0.3 3.4
    pair_coeff 815 815 lj/cut/coul/long 0.47 3.47
    pair_coeff 816 816 lj/cut/coul/long 0.07 3.55
    pair_coeff 817 817 lj/cut/coul/long 0.14 2.9
    pair_coeff 818 818 lj/cut/coul/long 0.066 3.5
    pair_coeff 819 819 lj/cut/coul/long 0.06 2.9
    pair_coeff 820 820 lj/cut/coul/long 0.17 3.25
    pair_coeff 821 821 lj/cut/coul/long 0.07 3.55
    pair_coeff 822 822 lj/cut/coul/long 0.066 3.5
    pair_coeff 823 823 lj/cut/coul/long 0.105 3.75
    pair_coeff 824 824 lj/cut/coul/long 0.105 3.75
    pair_coeff 825 825 lj/cut/coul/long 0.21 2.96
    pair_coeff 826 826 lj/cut/coul/long 0.17 3.25
    pair_coeff 827 827 lj/cut/coul/long 0.0 0.0
    pair_coeff 828 828 lj/cut/coul/long 0.17 3.12
    pair_coeff 829 829 lj/cut/coul/long 0.0 0.0
    pair_coeff 830 830 lj/cut/coul/long 0.066 3.5
    pair_coeff 831 831 lj/cut/coul/long 0.066 3.5
    pair_coeff 832 832 lj/cut/coul/long 0.07 3.55
    pair_coeff 833 833 lj/cut/coul/long 0.07 3.55
    pair_coeff 834 834 lj/cut/coul/long 0.07 3.55
    pair_coeff 835 835 lj/cut/coul/long 0.07 3.55
    pair_coeff 836 836 lj/cut/coul/long 0.07 3.55
    pair_coeff 837 837 lj/cut/coul/long 0.0125 1.96
    pair_coeff 838 838 lj/cut/coul/long 0.066 3.5
    pair_coeff 839 839 lj/cut/coul/long 0.066 3.5
    pair_coeff 840 840 lj/cut/coul/long 0.066 3.5
    pair_coeff 841 841 lj/cut/coul/long 0.6 3.75
    pair_coeff 842 842 lj/cut/coul/long 0.03 2.5
    pair_coeff 843 843 lj/cut/coul/long 0.17 3.25
    pair_coeff 844 844 lj/cut/coul/long 0.07 3.55
    pair_coeff 845 845 lj/cut/coul/long 0.07 3.55
    pair_coeff 846 846 lj/cut/coul/long 0.17 3.25
    pair_coeff 847 847 lj/cut/coul/long 0.07 3.55
    pair_coeff 848 848 lj/cut/coul/long 0.105 3.75
    pair_coeff 849 849 lj/cut/coul/long 0.21 2.96
    pair_coeff 850 850 lj/cut/coul/long 0.17 3.25
    pair_coeff 851 851 lj/cut/coul/long 0.066 3.5
    pair_coeff 852 852 lj/cut/coul/long 0.066 3.5
    pair_coeff 853 853 lj/cut/coul/long 0.066 3.5
    pair_coeff 854 854 lj/cut/coul/long 0.066 3.5
    pair_coeff 855 855 lj/cut/coul/long 0.015 2.42
    pair_coeff 856 856 lj/cut/coul/long 0.105 3.75
    pair_coeff 857 857 lj/cut/coul/long 0.21 2.96
    pair_coeff 858 858 lj/cut/coul/long 0.015 2.42
    pair_coeff 859 859 lj/cut/coul/long 0.066 3.5
    pair_coeff 860 860 lj/cut/coul/long 0.066 3.5
    pair_coeff 861 861 lj/cut/coul/long 0.066 3.5
    pair_coeff 862 862 lj/cut/coul/long 0.066 3.5
    pair_coeff 863 863 lj/cut/coul/long 0.066 3.5
    pair_coeff 864 864 lj/cut/coul/long 0.066 3.5
    pair_coeff 865 865 lj/cut/coul/long 0.066 3.5
    pair_coeff 866 866 lj/cut/coul/long 0.066 3.5
    pair_coeff 867 867 lj/cut/coul/long 0.066 3.5
    pair_coeff 868 868 lj/cut/coul/long 0.066 3.5
    pair_coeff 869 869 lj/cut/coul/long 0.1 4.0
    pair_coeff 870 870 lj/cut/coul/long 0.1 4.0
    pair_coeff 871 871 lj/cut/coul/long 0.1 4.0
    pair_coeff 872 872 lj/cut/coul/long 0.1 4.0
    pair_coeff 873 873 lj/cut/coul/long 0.03 2.5
    pair_coeff 874 874 lj/cut/coul/long 0.066 3.5
    pair_coeff 875 875 lj/cut/coul/long 0.066 3.5
    pair_coeff 876 876 lj/cut/coul/long 0.066 3.5
    pair_coeff 877 877 lj/cut/coul/long 0.066 3.5
    pair_coeff 878 878 lj/cut/coul/long 0.72 3.08
    pair_coeff 879 879 lj/cut/coul/long 0.11779 4.18
    pair_coeff 880 880 lj/cut/coul/long 0.09 4.51
    pair_coeff 881 881 lj/cut/coul/long 0.07 5.15
    pair_coeff 882 882 lj/cut/coul/long 0.018279 2.7
    pair_coeff 883 883 lj/cut/coul/long 0.002772 3.35
    pair_coeff 884 884 lj/cut/coul/long 0.000328 4.06
    pair_coeff 885 885 lj/cut/coul/long 0.000171 4.32
    pair_coeff 886 886 lj/cut/coul/long 8.1e-05 4.82
    pair_coeff 887 887 lj/cut/coul/long 0.875044 2.91
    pair_coeff 888 888 lj/cut/coul/long 0.449657 3.47
    pair_coeff 889 889 lj/cut/coul/long 0.118226 3.82
    pair_coeff 890 890 lj/cut/coul/long 0.047096 4.18
    pair_coeff 891 891 lj/cut/coul/long 0.066 3.5
    pair_coeff 892 892 lj/cut/coul/long 0.066 3.5
    pair_coeff 893 893 lj/cut/coul/long 0.066 3.5
    pair_coeff 894 894 lj/cut/coul/long 0.066 3.5
    pair_coeff 895 895 lj/cut/coul/long 0.03 2.5
    pair_coeff 896 896 lj/cut/coul/long 0.17 3.25
    pair_coeff 897 897 lj/cut/coul/long 0.07 3.55
    pair_coeff 898 898 lj/cut/coul/long 0.17 3.25
    pair_coeff 899 899 lj/cut/coul/long 0.07 3.55
    pair_coeff 900 900 lj/cut/coul/long 0.076 3.55
    pair_coeff 901 901 lj/cut/coul/long 0.076 3.55
    pair_coeff 902 902 lj/cut/coul/long 0.03 2.42
    pair_coeff 903 903 lj/cut/coul/long 0.086 3.3
    pair_coeff 904 904 lj/cut/coul/long 0.086 3.3
    pair_coeff 905 905 lj/cut/coul/long 0.086 3.3
    pair_coeff 906 906 lj/cut/coul/long 0.086 3.3
    pair_coeff 907 907 lj/cut/coul/long 0.086 3.3
    pair_coeff 908 908 lj/cut/coul/long 0.21 2.96
    pair_coeff 909 909 lj/cut/coul/long 0.066 3.5
    bond_coeff 3 harmonic 367.0 1.38
    bond_coeff 4 harmonic 420.0 1.357
    bond_coeff 5 harmonic 367.0 1.36
    bond_coeff 6 harmonic 450.0 1.279
    bond_coeff 7 harmonic 300.0 0.3
    bond_coeff 8 harmonic 420.0 1.34
    bond_coeff 9 harmonic 420.0 1.354
    bond_coeff 10 harmonic 420.0 1.354
    bond_coeff 11 harmonic 420.0 1.354
    bond_coeff 12 harmonic 420.0 1.354
    bond_coeff 13 harmonic 420.0 1.354
    bond_coeff 14 harmonic 420.0 1.354
    bond_coeff 15 harmonic 461.0 1.57
    bond_coeff 16 harmonic 260.0 1.526
    bond_coeff 17 harmonic 317.0 1.522
    bond_coeff 18 harmonic 386.0 1.425
    bond_coeff 19 harmonic 260.0 1.526
    bond_coeff 20 harmonic 260.0 1.526
    bond_coeff 21 harmonic 317.0 1.5
    bond_coeff 22 harmonic 317.0 1.51
    bond_coeff 23 harmonic 260.0 1.526
    bond_coeff 24 harmonic 317.0 1.5
    bond_coeff 25 harmonic 222.0 1.81
    bond_coeff 26 harmonic 222.0 1.81
    bond_coeff 27 harmonic 320.0 1.425
    bond_coeff 28 harmonic 337.0 1.449
    bond_coeff 29 harmonic 382.0 1.448
    bond_coeff 30 harmonic 317.0 1.51
    bond_coeff 31 harmonic 260.0 1.526
    bond_coeff 32 harmonic 367.0 1.471
    bond_coeff 33 harmonic 337.0 1.463
    bond_coeff 34 harmonic 317.0 1.495
    bond_coeff 35 harmonic 350.0 1.51
    bond_coeff 36 harmonic 570.0 1.229
    bond_coeff 37 harmonic 450.0 1.364
    bond_coeff 38 harmonic 317.0 1.522
    bond_coeff 39 harmonic 317.0 1.522
    bond_coeff 40 harmonic 469.0 1.4
    bond_coeff 41 harmonic 317.0 1.522
    bond_coeff 42 harmonic 400.0 1.444
    bond_coeff 43 harmonic 214.0 1.327
    bond_coeff 44 harmonic 300.0 1.79
    bond_coeff 45 harmonic 490.0 1.335
    bond_coeff 46 harmonic 317.0 1.522
    bond_coeff 47 harmonic 340.0 1.09
    bond_coeff 48 harmonic 410.0 1.444
    bond_coeff 49 harmonic 400.0 1.49
    bond_coeff 50 harmonic 385.0 1.46
    bond_coeff 51 harmonic 656.0 1.25
    bond_coeff 52 harmonic 457.0 1.358
    bond_coeff 53 harmonic 418.0 1.388
    bond_coeff 54 harmonic 447.0 1.419
    bond_coeff 55 harmonic 300.0 1.98
    bond_coeff 56 harmonic 400.0 1.49
    bond_coeff 57 harmonic 385.0 1.46
    bond_coeff 58 harmonic 424.0 1.383
    bond_coeff 59 harmonic 490.0 1.335
    bond_coeff 60 harmonic 553.0 0.3
    bond_coeff 61 harmonic 525.0 1.48
    bond_coeff 62 harmonic 570.0 1.229
    bond_coeff 63 harmonic 700.0 1.171
    bond_coeff 64 harmonic 386.0 1.425
    bond_coeff 65 harmonic 553.0 0.945
    bond_coeff 66 harmonic 386.0 1.425
    bond_coeff 67 harmonic 320.0 1.41
    bond_coeff 68 harmonic 250.0 1.47
    bond_coeff 69 harmonic 400.0 1.38
    bond_coeff 70 harmonic 340.0 0.3
    bond_coeff 71 harmonic 320.0 1.45
    bond_coeff 72 harmonic 450.0 1.37
    bond_coeff 73 harmonic 450.0 1.364
    bond_coeff 74 harmonic 320.0 1.38
    bond_coeff 75 harmonic 230.0 1.61
    bond_coeff 76 harmonic 450.0 1.67
    bond_coeff 77 harmonic 94.0 1.8
    bond_coeff 78 harmonic 374.0 1.64
    bond_coeff 79 harmonic 260.0 1.526
    bond_coeff 80 harmonic 260.0 1.526
    bond_coeff 81 harmonic 317.0 1.5
    bond_coeff 82 harmonic 260.0 1.526
    bond_coeff 83 harmonic 317.0 1.5
    bond_coeff 84 harmonic 222.0 1.81
    bond_coeff 85 harmonic 222.0 1.81
    bond_coeff 86 harmonic 320.0 1.425
    bond_coeff 87 harmonic 337.0 1.449
    bond_coeff 88 harmonic 382.0 1.448
    bond_coeff 89 harmonic 317.0 1.51
    bond_coeff 90 harmonic 260.0 1.526
    bond_coeff 91 harmonic 367.0 1.471
    bond_coeff 92 harmonic 337.0 1.463
    bond_coeff 93 harmonic 222.0 1.81
    bond_coeff 94 harmonic 337.0 1.475
    bond_coeff 95 harmonic 553.0 0.945
    bond_coeff 96 harmonic 340.0 0.1
    bond_coeff 97 harmonic 530.0 1.34
    bond_coeff 98 harmonic 530.0 1.34
    bond_coeff 99 harmonic 530.0 1.34
    bond_coeff 100 harmonic 260.0 1.526
    bond_coeff 101 harmonic 317.0 1.5
    bond_coeff 102 harmonic 317.0 1.5
    bond_coeff 103 harmonic 320.0 1.425
    bond_coeff 104 harmonic 337.0 1.449
    bond_coeff 105 harmonic 382.0 1.448
    bond_coeff 106 harmonic 337.0 1.475
    bond_coeff 107 harmonic 530.0 1.34
    bond_coeff 108 harmonic 317.0 1.5
    bond_coeff 109 harmonic 530.0 1.34
    bond_coeff 110 harmonic 222.0 1.76
    bond_coeff 111 harmonic 469.0 1.4
    bond_coeff 112 harmonic 469.0 1.4
    bond_coeff 113 harmonic 469.0 1.4
    bond_coeff 114 harmonic 469.0 1.4
    bond_coeff 115 harmonic 268.0 1.529
    bond_coeff 116 harmonic 317.0 1.5
    bond_coeff 117 harmonic 222.0 1.81
    bond_coeff 118 harmonic 222.0 1.81
    bond_coeff 119 harmonic 390.0 1.43
    bond_coeff 120 harmonic 390.0 1.47
    bond_coeff 121 harmonic 320.0 1.41
    bond_coeff 122 harmonic 245.0 1.781
    bond_coeff 123 harmonic 340.0 1.79
    bond_coeff 124 harmonic 337.0 1.449
    bond_coeff 125 harmonic 340.0 0.3
    bond_coeff 126 harmonic 382.0 1.448
    bond_coeff 127 harmonic 340.0 1.09
    bond_coeff 128 harmonic 317.0 1.51
    bond_coeff 129 harmonic 317.0 1.51
    bond_coeff 130 harmonic 317.0 1.51
    bond_coeff 131 harmonic 268.0 1.529
    bond_coeff 132 harmonic 367.0 1.471
    bond_coeff 133 harmonic 337.0 1.463
    bond_coeff 134 harmonic 337.0 1.449
    bond_coeff 135 harmonic 337.0 1.475
    bond_coeff 136 harmonic 317.0 1.51
    bond_coeff 137 harmonic 212.0 1.843
    bond_coeff 138 harmonic 245.0 1.945
    bond_coeff 139 harmonic 200.0 2.19
    bond_coeff 140 harmonic 340.0 1.77
    bond_coeff 141 harmonic 317.0 1.495
    bond_coeff 142 harmonic 317.0 1.504
    bond_coeff 143 harmonic 317.0 1.504
    bond_coeff 144 harmonic 317.0 1.504
    bond_coeff 145 harmonic 317.0 1.495
    bond_coeff 146 harmonic 337.0 1.449
    bond_coeff 147 harmonic 280.0 1.51
    bond_coeff 148 harmonic 532.8 1.46
    bond_coeff 149 harmonic 382.0 1.448
    bond_coeff 150 harmonic 375.0 1.49
    bond_coeff 151 harmonic 212.0 1.82
    bond_coeff 152 harmonic 337.0 1.475
    bond_coeff 153 harmonic 337.0 1.449
    bond_coeff 154 harmonic 187.0 1.86
    bond_coeff 155 harmonic 317.0 1.51
    bond_coeff 156 harmonic 530.0 1.34
    bond_coeff 157 harmonic 274.0 1.336
    bond_coeff 158 harmonic 250.0 1.74
    bond_coeff 159 harmonic 166.0 2.038
    bond_coeff 160 harmonic 300.0 1.685
    bond_coeff 161 harmonic 250.0 1.73
    bond_coeff 162 harmonic 340.0 0.5
    bond_coeff 163 harmonic 250.0 1.76
    bond_coeff 164 harmonic 250.0 1.76
    bond_coeff 165 harmonic 250.0 1.73
    bond_coeff 166 harmonic 250.0 1.76
    bond_coeff 167 harmonic 250.0 1.74
    bond_coeff 168 harmonic 222.0 1.81
    bond_coeff 169 harmonic 144.0 2.15
    bond_coeff 170 harmonic 340.0 0.1
    bond_coeff 171 harmonic 550.0 1.12
    bond_coeff 172 harmonic 650.0 1.157
    bond_coeff 173 harmonic 400.0 1.41
    bond_coeff 174 harmonic 550.0 1.24
    bond_coeff 175 harmonic 1150.0 1.21
    bond_coeff 176 harmonic 330.0 1.637
    bond_coeff 177 harmonic 420.0 1.08
    bond_coeff 178 harmonic 400.0 1.426
    bond_coeff 179 harmonic 400.0 1.451
    bond_coeff 180 harmonic 400.0 1.426
    bond_coeff 181 harmonic 330.0 1.784
    bond_coeff 182 harmonic 400.0 1.451
    bond_coeff 183 harmonic 400.0 1.451
    bond_coeff 184 harmonic 250.0 1.47
    bond_coeff 185 harmonic 200.0 1.69
    bond_coeff 186 harmonic 320.0 1.45
    bond_coeff 187 harmonic 340.0 0.3
    bond_coeff 188 harmonic 320.0 1.45
    bond_coeff 189 harmonic 450.0 1.37
    bond_coeff 190 harmonic 450.0 1.364
    bond_coeff 191 harmonic 320.0 1.38
    bond_coeff 192 harmonic 340.0 1.36
    bond_coeff 193 harmonic 462.0 1.399
    bond_coeff 194 harmonic 230.0 1.61
    bond_coeff 195 harmonic 462.0 1.357
    bond_coeff 196 harmonic 340.0 1.36
    bond_coeff 197 harmonic 374.0 1.64
    bond_coeff 198 harmonic 300.0 0.3
    bond_coeff 199 harmonic 300.0 1.725
    bond_coeff 200 harmonic 300.0 1.725
    bond_coeff 201 harmonic 300.0 1.725
    bond_coeff 202 harmonic 300.0 1.725
    bond_coeff 203 harmonic 300.0 1.725
    bond_coeff 204 harmonic 300.0 1.725
    bond_coeff 205 harmonic 300.0 1.725
    bond_coeff 206 harmonic 223.0 2.02
    bond_coeff 207 harmonic 700.0 1.53
    bond_coeff 208 harmonic 340.0 0.5
    bond_coeff 209 harmonic 340.0 0.3
    bond_coeff 210 harmonic 700.0 1.44
    bond_coeff 211 harmonic 367.0 0.3
    bond_coeff 212 harmonic 434.0 1.01
    bond_coeff 213 harmonic 427.0 1.381
    bond_coeff 214 harmonic 427.0 1.381
    bond_coeff 215 harmonic 434.0 1.67
    bond_coeff 216 harmonic 427.0 1.381
    bond_coeff 217 harmonic 427.0 1.381
    bond_coeff 218 harmonic 337.0 1.449
    bond_coeff 219 harmonic 500.0 1.27
    bond_coeff 220 harmonic 40.0 2.05
    bond_coeff 221 harmonic 340.0 0.3
    bond_coeff 222 harmonic 340.0 0.3
    bond_coeff 223 harmonic 340.0 0.1
    bond_coeff 224 harmonic 340.0 0.3
    bond_coeff 225 harmonic 340.0 0.3
    bond_coeff 226 harmonic 367.0 0.3
    bond_coeff 227 harmonic 340.0 0.3
    bond_coeff 228 harmonic 340.0 0.3
    bond_coeff 229 harmonic 367.0 0.3
    bond_coeff 230 harmonic 367.0 0.3
    bond_coeff 231 harmonic 300.0 0.3
    bond_coeff 232 harmonic 340.0 0.1
    bond_coeff 233 harmonic 600.0 0.9572
    bond_coeff 234 harmonic 900.0 0.15
    bond_coeff 235 harmonic 40.0 2.05
    bond_coeff 236 harmonic 529.6 0.9572
    bond_coeff 237 harmonic 600.0 0.9572
    bond_coeff 238 harmonic 900.0 0.175
    bond_coeff 239 harmonic 600.0 0.9572
    bond_coeff 240 harmonic 900.0 0.7
    bond_coeff 241 harmonic 600.0 1.0
    bond_coeff 242 harmonic 350.0 1.445
    bond_coeff 243 harmonic 434.0 1.01
    bond_coeff 244 harmonic 481.0 1.34
    bond_coeff 245 harmonic 340.0 1.77
    bond_coeff 246 harmonic 382.0 1.448
    bond_coeff 247 harmonic 266.0 1.74
    bond_coeff 248 harmonic 434.0 1.01
    bond_coeff 249 harmonic 434.0 1.01
    bond_coeff 250 harmonic 434.0 1.01
    bond_coeff 251 harmonic 434.0 1.01
    bond_coeff 252 harmonic 434.0 1.01
    bond_coeff 253 harmonic 434.0 1.01
    bond_coeff 254 harmonic 166.0 1.48
    bond_coeff 255 harmonic 340.0 1.08
    bond_coeff 256 harmonic 340.0 1.08
    bond_coeff 257 harmonic 340.0 1.09
    bond_coeff 258 harmonic 340.0 1.08
    bond_coeff 259 harmonic 340.0 1.088
    bond_coeff 260 harmonic 532.8 1.084
    bond_coeff 261 harmonic 166.0 1.48
    bond_coeff 262 harmonic 340.0 1.08
    bond_coeff 263 harmonic 549.0 1.34
    bond_coeff 264 harmonic 427.0 1.433
    bond_coeff 265 harmonic 549.0 1.34
    bond_coeff 266 harmonic 448.0 1.365
    bond_coeff 267 harmonic 367.0 1.08
    bond_coeff 268 harmonic 300.0 1.9
    bond_coeff 269 harmonic 250.0 2.08
    bond_coeff 270 harmonic 385.0 1.46
    bond_coeff 271 harmonic 317.0 1.51
    bond_coeff 272 harmonic 448.0 1.365
    bond_coeff 273 harmonic 700.0 1.305
    bond_coeff 274 harmonic 469.0 1.4
    bond_coeff 275 harmonic 367.0 1.08
    bond_coeff 276 harmonic 427.0 1.433
    bond_coeff 277 harmonic 400.0 1.45
    bond_coeff 278 harmonic 481.0 1.34
    bond_coeff 279 harmonic 483.0 1.339
    bond_coeff 280 harmonic 427.0 1.381
    bond_coeff 281 harmonic 469.0 1.404
    bond_coeff 282 harmonic 414.0 1.391
    bond_coeff 283 harmonic 220.0 1.78
    bond_coeff 284 harmonic 300.0 1.87
    bond_coeff 285 harmonic 250.0 2.08
    bond_coeff 286 harmonic 340.0 1.77
    bond_coeff 287 harmonic 469.0 1.4
    bond_coeff 288 harmonic 546.0 1.367
    bond_coeff 289 harmonic 469.0 1.4
    bond_coeff 290 harmonic 469.0 1.421
    bond_coeff 291 harmonic 317.0 1.49
    bond_coeff 292 harmonic 382.0 1.385
    bond_coeff 293 harmonic 400.0 1.46
    bond_coeff 294 harmonic 427.0 1.433
    bond_coeff 295 harmonic 367.0 1.08
    bond_coeff 296 harmonic 340.0 1.08
    bond_coeff 297 harmonic 367.0 1.08
    bond_coeff 298 harmonic 367.0 1.08
    bond_coeff 299 harmonic 367.0 1.08
    bond_coeff 300 harmonic 367.0 1.08
    bond_coeff 301 harmonic 367.0 1.08
    bond_coeff 302 harmonic 367.0 1.08
    bond_coeff 303 harmonic 385.0 1.46
    bond_coeff 304 harmonic 457.0 1.29
    bond_coeff 305 harmonic 549.0 1.365
    bond_coeff 306 harmonic 385.0 1.46
    bond_coeff 307 harmonic 337.0 1.475
    bond_coeff 308 harmonic 525.0 1.48
    bond_coeff 309 harmonic 434.0 1.01
    bond_coeff 310 harmonic 434.0 1.01
    bond_coeff 311 harmonic 481.0 1.34
    bond_coeff 312 harmonic 481.0 1.34
    bond_coeff 313 harmonic 500.0 1.32
    bond_coeff 314 harmonic 502.0 1.324
    bond_coeff 315 harmonic 461.0 1.354
    bond_coeff 316 harmonic 461.0 1.354
    bond_coeff 317 harmonic 483.0 1.339
    bond_coeff 318 harmonic 550.0 1.21
    bond_coeff 319 harmonic 457.0 1.29
    bond_coeff 320 harmonic 436.0 1.374
    bond_coeff 321 harmonic 400.0 1.349
    bond_coeff 322 harmonic 440.0 1.371
    bond_coeff 323 harmonic 428.0 1.38
    bond_coeff 324 harmonic 477.0 1.343
    bond_coeff 325 harmonic 427.0 1.381
    bond_coeff 326 harmonic 427.0 1.381
    bond_coeff 327 harmonic 385.0 1.44
    bond_coeff 328 harmonic 367.0 1.08
    bond_coeff 329 harmonic 367.0 1.08
    bond_coeff 330 harmonic 367.0 1.08
    bond_coeff 331 harmonic 520.0 1.37
    bond_coeff 332 harmonic 414.0 1.391
    bond_coeff 333 harmonic 388.0 1.459
    bond_coeff 334 harmonic 447.0 1.419
    bond_coeff 335 harmonic 469.0 1.424
    bond_coeff 336 harmonic 436.0 1.374
    bond_coeff 337 harmonic 400.0 1.28
    bond_coeff 338 harmonic 529.0 1.304
    bond_coeff 339 harmonic 488.0 1.335
    bond_coeff 340 harmonic 410.0 1.394
    bond_coeff 341 harmonic 410.0 1.394
    bond_coeff 342 harmonic 410.0 1.32
    bond_coeff 343 harmonic 367.0 1.08
    bond_coeff 344 harmonic 440.0 1.371
    bond_coeff 345 harmonic 367.0 1.08
    bond_coeff 346 harmonic 108.0 2.25
    bond_coeff 347 harmonic 300.0 1.87
    bond_coeff 348 harmonic 300.0 1.87
    bond_coeff 349 harmonic 300.0 1.87
    bond_coeff 350 harmonic 300.0 1.87
    bond_coeff 351 harmonic 300.0 1.87
    bond_coeff 352 harmonic 151.0 2.19
    bond_coeff 353 harmonic 250.0 2.08
    bond_coeff 354 harmonic 250.0 2.08
    bond_coeff 355 harmonic 250.0 2.08
    bond_coeff 356 harmonic 250.0 2.08
    bond_coeff 357 harmonic 250.0 2.08
    bond_coeff 358 harmonic 108.0 2.44
    bond_coeff 359 harmonic 500.0 1.8
    bond_coeff 360 harmonic 546.0 1.352
    bond_coeff 361 harmonic 385.0 1.46
    bond_coeff 362 harmonic 520.0 1.37
    bond_coeff 363 harmonic 520.0 1.37
    bond_coeff 364 harmonic 385.0 1.46
    bond_coeff 365 harmonic 512.0 1.375
    bond_coeff 366 harmonic 385.0 1.46
    bond_coeff 367 harmonic 546.0 1.367
    bond_coeff 368 harmonic 520.0 1.37
    bond_coeff 369 harmonic 520.0 1.37
    bond_coeff 370 harmonic 385.0 1.46
    bond_coeff 371 harmonic 385.0 1.46
    bond_coeff 372 harmonic 385.0 1.46
    bond_coeff 373 harmonic 469.0 1.424
    bond_coeff 374 harmonic 469.0 1.424
    bond_coeff 375 harmonic 490.0 1.335
    bond_coeff 376 harmonic 317.0 1.522
    bond_coeff 377 harmonic 337.0 1.449
    bond_coeff 378 harmonic 260.0 1.52
    bond_coeff 379 harmonic 550.0 1.225
    bond_coeff 380 harmonic 94.0 2.32
    bond_coeff 381 harmonic 549.0 1.345
    angle_coeff 2 harmonic 33.0 109.47
    angle_coeff 3 harmonic 50.0 109.5
    angle_coeff 4 harmonic 63.0 112.4
    angle_coeff 5 harmonic 63.0 112.4
    angle_coeff 6 harmonic 80.0 109.5
    angle_coeff 7 harmonic 63.0 112.4
    angle_coeff 8 harmonic 63.0 112.4
    angle_coeff 9 harmonic 80.0 109.5
    angle_coeff 10 harmonic 63.0 112.4
    angle_coeff 11 harmonic 63.0 112.4
    angle_coeff 12 harmonic 63.0 112.4
    angle_coeff 13 harmonic 63.0 112.4
    angle_coeff 14 harmonic 80.0 109.5
    angle_coeff 15 harmonic 63.0 114.0
    angle_coeff 16 harmonic 63.0 112.4
    angle_coeff 17 harmonic 50.0 108.6
    angle_coeff 18 harmonic 50.0 114.7
    angle_coeff 19 harmonic 50.0 114.7
    angle_coeff 20 harmonic 80.0 109.5
    angle_coeff 21 harmonic 80.0 109.5
    angle_coeff 22 harmonic 80.0 109.5
    angle_coeff 23 harmonic 80.0 110.3
    angle_coeff 24 harmonic 80.0 111.2
    angle_coeff 25 harmonic 56.2 109.47
    angle_coeff 26 harmonic 56.2 109.47
    angle_coeff 27 harmonic 56.2 109.47
    angle_coeff 28 harmonic 56.2 109.47
    angle_coeff 29 harmonic 80.0 111.2
    angle_coeff 30 harmonic 63.0 112.4
    angle_coeff 31 harmonic 63.0 114.0
    angle_coeff 32 harmonic 63.0 112.4
    angle_coeff 33 harmonic 63.0 112.4
    angle_coeff 34 harmonic 80.0 111.2
    angle_coeff 35 harmonic 80.0 111.2
    angle_coeff 36 harmonic 63.0 115.6
    angle_coeff 37 harmonic 80.0 120.4
    angle_coeff 38 harmonic 80.0 121.0
    angle_coeff 39 harmonic 80.0 121.4
    angle_coeff 40 harmonic 80.0 126.0
    angle_coeff 41 harmonic 80.0 121.0
    angle_coeff 42 harmonic 80.0 120.4
    angle_coeff 43 harmonic 70.0 115.0
    angle_coeff 44 harmonic 80.0 120.4
    angle_coeff 45 harmonic 70.0 120.0
    angle_coeff 46 harmonic 85.0 120.0
    angle_coeff 47 harmonic 70.0 108.0
    angle_coeff 48 harmonic 70.0 116.0
    angle_coeff 49 harmonic 80.0 111.0
    angle_coeff 50 harmonic 80.0 117.2
    angle_coeff 51 harmonic 80.0 120.4
    angle_coeff 52 harmonic 81.0 111.4
    angle_coeff 53 harmonic 81.0 111.4
    angle_coeff 54 harmonic 83.0 123.4
    angle_coeff 55 harmonic 75.0 109.0
    angle_coeff 56 harmonic 75.0 119.0
    angle_coeff 57 harmonic 70.0 114.2
    angle_coeff 58 harmonic 70.0 116.6
    angle_coeff 59 harmonic 70.0 116.6
    angle_coeff 60 harmonic 70.0 116.6
    angle_coeff 61 harmonic 70.0 116.6
    angle_coeff 62 harmonic 70.0 116.6
    angle_coeff 63 harmonic 80.0 122.9
    angle_coeff 64 harmonic 81.0 111.4
    angle_coeff 65 harmonic 70.0 116.0
    angle_coeff 66 harmonic 80.0 120.4
    angle_coeff 67 harmonic 35.0 115.0
    angle_coeff 68 harmonic 35.0 115.0
    angle_coeff 69 harmonic 35.0 123.0
    angle_coeff 70 harmonic 40.0 114.0
    angle_coeff 71 harmonic 40.0 115.0
    angle_coeff 72 harmonic 40.0 115.0
    angle_coeff 73 harmonic 70.0 115.5
    angle_coeff 74 harmonic 80.0 125.3
    angle_coeff 75 harmonic 35.0 115.0
    angle_coeff 76 harmonic 70.0 115.5
    angle_coeff 77 harmonic 70.0 116.0
    angle_coeff 78 harmonic 70.0 120.0
    angle_coeff 79 harmonic 80.0 120.4
    angle_coeff 80 harmonic 81.0 111.4
    angle_coeff 81 harmonic 85.0 120.0
    angle_coeff 82 harmonic 70.0 116.0
    angle_coeff 83 harmonic 80.0 116.0
    angle_coeff 84 harmonic 80.0 124.0
    angle_coeff 85 harmonic 65.0 117.0
    angle_coeff 86 harmonic 70.0 117.0
    angle_coeff 87 harmonic 70.0 117.0
    angle_coeff 88 harmonic 70.0 117.0
    angle_coeff 89 harmonic 70.0 117.0
    angle_coeff 90 harmonic 80.0 126.0
    angle_coeff 91 harmonic 80.0 126.0
    angle_coeff 92 harmonic 35.0 122.0
    angle_coeff 93 harmonic 80.0 122.5
    angle_coeff 94 harmonic 70.0 114.1
    angle_coeff 95 harmonic 70.0 118.6
    angle_coeff 96 harmonic 70.0 118.6
    angle_coeff 97 harmonic 80.0 120.6
    angle_coeff 98 harmonic 70.0 111.3
    angle_coeff 99 harmonic 70.0 111.3
    angle_coeff 100 harmonic 80.0 128.8
    angle_coeff 101 harmonic 75.0 109.0
    angle_coeff 102 harmonic 75.0 119.0
    angle_coeff 103 harmonic 70.0 116.0
    angle_coeff 104 harmonic 80.0 120.4
    angle_coeff 105 harmonic 80.0 128.2
    angle_coeff 106 harmonic 70.0 115.4
    angle_coeff 107 harmonic 70.0 118.6
    angle_coeff 108 harmonic 80.0 120.9
    angle_coeff 109 harmonic 70.0 116.6
    angle_coeff 110 harmonic 80.0 122.9
    angle_coeff 111 harmonic 10.0 117.0
    angle_coeff 112 harmonic 35.0 113.0
    angle_coeff 113 harmonic 35.0 113.0
    angle_coeff 114 harmonic 55.0 108.5
    angle_coeff 115 harmonic 55.0 108.5
    angle_coeff 116 harmonic 55.0 108.5
    angle_coeff 117 harmonic 55.0 108.5
    angle_coeff 118 harmonic 49.0 105.4
    angle_coeff 119 harmonic 5.0 109.47
    angle_coeff 120 harmonic 10.0 109.47
    angle_coeff 121 harmonic 10.0 109.47
    angle_coeff 122 harmonic 35.0 109.0
    angle_coeff 123 harmonic 10.0 109.47
    angle_coeff 124 harmonic 35.0 113.0
    angle_coeff 125 harmonic 55.0 108.5
    angle_coeff 126 harmonic 55.0 108.5
    angle_coeff 127 harmonic 100.0 120.5
    angle_coeff 128 harmonic 74.0 110.0
    angle_coeff 129 harmonic 100.0 126.0
    angle_coeff 130 harmonic 10.0 109.47
    angle_coeff 131 harmonic 33.0 109.47
    angle_coeff 132 harmonic 63.0 112.4
    angle_coeff 133 harmonic 63.0 111.1
    angle_coeff 134 harmonic 80.0 109.5
    angle_coeff 135 harmonic 63.0 111.1
    angle_coeff 136 harmonic 63.0 111.5
    angle_coeff 137 harmonic 63.0 112.4
    angle_coeff 138 harmonic 80.0 109.5
    angle_coeff 139 harmonic 63.0 111.1
    angle_coeff 140 harmonic 63.0 111.5
    angle_coeff 141 harmonic 63.0 111.5
    angle_coeff 142 harmonic 63.0 111.5
    angle_coeff 143 harmonic 80.0 109.5
    angle_coeff 144 harmonic 80.0 109.5
    angle_coeff 145 harmonic 80.0 109.5
    angle_coeff 146 harmonic 80.0 109.5
    angle_coeff 147 harmonic 63.0 110.1
    angle_coeff 148 harmonic 80.0 109.5
    angle_coeff 149 harmonic 80.0 109.7
    angle_coeff 150 harmonic 80.0 109.7
    angle_coeff 151 harmonic 56.2 109.47
    angle_coeff 152 harmonic 56.2 109.47
    angle_coeff 153 harmonic 56.2 109.47
    angle_coeff 154 harmonic 56.2 109.47
    angle_coeff 155 harmonic 80.0 109.7
    angle_coeff 156 harmonic 63.0 112.4
    angle_coeff 157 harmonic 80.0 109.5
    angle_coeff 158 harmonic 80.0 109.5
    angle_coeff 159 harmonic 80.0 109.5
    angle_coeff 160 harmonic 80.0 109.5
    angle_coeff 161 harmonic 70.0 124.0
    angle_coeff 162 harmonic 70.0 124.0
    angle_coeff 163 harmonic 70.0 124.0
    angle_coeff 164 harmonic 70.0 118.0
    angle_coeff 165 harmonic 70.0 118.0
    angle_coeff 166 harmonic 70.0 118.0
    angle_coeff 167 harmonic 70.0 124.0
    angle_coeff 168 harmonic 70.0 124.0
    angle_coeff 169 harmonic 70.0 124.0
    angle_coeff 170 harmonic 70.0 118.0
    angle_coeff 171 harmonic 70.0 118.0
    angle_coeff 172 harmonic 70.0 118.0
    angle_coeff 173 harmonic 70.0 118.0
    angle_coeff 174 harmonic 70.0 118.0
    angle_coeff 175 harmonic 70.0 118.0
    angle_coeff 176 harmonic 70.0 118.0
    angle_coeff 177 harmonic 70.0 124.0
    angle_coeff 178 harmonic 70.0 124.0
    angle_coeff 179 harmonic 70.0 124.0
    angle_coeff 180 harmonic 70.0 124.0
    angle_coeff 181 harmonic 70.0 118.0
    angle_coeff 182 harmonic 70.0 118.0
    angle_coeff 183 harmonic 70.0 118.0
    angle_coeff 184 harmonic 70.0 120.0
    angle_coeff 185 harmonic 85.0 120.0
    angle_coeff 186 harmonic 85.0 120.0
    angle_coeff 187 harmonic 85.0 120.0
    angle_coeff 188 harmonic 85.0 120.0
    angle_coeff 189 harmonic 85.0 120.0
    angle_coeff 190 harmonic 77.0 109.1
    angle_coeff 191 harmonic 40.0 109.5
    angle_coeff 192 harmonic 50.0 109.5
    angle_coeff 193 harmonic 63.0 111.1
    angle_coeff 194 harmonic 63.0 111.1
    angle_coeff 195 harmonic 40.0 109.5
    angle_coeff 196 harmonic 40.0 109.5
    angle_coeff 197 harmonic 63.0 109.5
    angle_coeff 198 harmonic 50.0 109.5
    angle_coeff 199 harmonic 50.0 109.5
    angle_coeff 200 harmonic 58.35 112.7
    angle_coeff 201 harmonic 63.0 111.1
    angle_coeff 202 harmonic 50.0 108.6
    angle_coeff 203 harmonic 50.0 114.7
    angle_coeff 204 harmonic 58.35 112.7
    angle_coeff 205 harmonic 50.0 109.5
    angle_coeff 206 harmonic 50.0 109.5
    angle_coeff 207 harmonic 69.0 109.8
    angle_coeff 208 harmonic 69.0 109.8
    angle_coeff 209 harmonic 78.0 111.7
    angle_coeff 210 harmonic 50.0 108.6
    angle_coeff 211 harmonic 50.0 109.5
    angle_coeff 212 harmonic 63.0 110.1
    angle_coeff 213 harmonic 80.0 109.7
    angle_coeff 214 harmonic 80.0 109.7
    angle_coeff 215 harmonic 50.0 114.7
    angle_coeff 216 harmonic 56.2 109.47
    angle_coeff 217 harmonic 56.2 109.47
    angle_coeff 218 harmonic 56.2 109.47
    angle_coeff 219 harmonic 56.2 109.47
    angle_coeff 220 harmonic 80.0 111.2
    angle_coeff 221 harmonic 33.0 107.8
    angle_coeff 222 harmonic 35.0 108.5
    angle_coeff 223 harmonic 35.0 108.5
    angle_coeff 224 harmonic 35.0 109.5
    angle_coeff 225 harmonic 35.0 109.5
    angle_coeff 226 harmonic 35.0 109.5
    angle_coeff 227 harmonic 35.0 109.5
    angle_coeff 228 harmonic 35.0 109.5
    angle_coeff 229 harmonic 35.0 109.5
    angle_coeff 230 harmonic 35.0 109.5
    angle_coeff 231 harmonic 35.0 109.5
    angle_coeff 232 harmonic 35.0 109.5
    angle_coeff 233 harmonic 37.5 110.7
    angle_coeff 234 harmonic 40.0 107.0
    angle_coeff 235 harmonic 51.0 107.6
    angle_coeff 236 harmonic 35.0 109.5
    angle_coeff 237 harmonic 50.0 109.5
    angle_coeff 238 harmonic 63.0 111.1
    angle_coeff 239 harmonic 63.0 112.4
    angle_coeff 240 harmonic 35.0 109.5
    angle_coeff 241 harmonic 40.0 109.5
    angle_coeff 242 harmonic 40.0 109.5
    angle_coeff 243 harmonic 50.0 109.5
    angle_coeff 244 harmonic 50.0 109.5
    angle_coeff 245 harmonic 50.0 109.5
    angle_coeff 246 harmonic 50.0 114.7
    angle_coeff 247 harmonic 63.0 112.0
    angle_coeff 248 harmonic 63.0 114.0
    angle_coeff 249 harmonic 63.0 114.0
    angle_coeff 250 harmonic 80.0 111.2
    angle_coeff 251 harmonic 35.0 109.5
    angle_coeff 252 harmonic 37.5 110.7
    angle_coeff 253 harmonic 50.0 109.5
    angle_coeff 254 harmonic 58.35 112.7
    angle_coeff 255 harmonic 35.0 109.5
    angle_coeff 256 harmonic 80.0 111.2
    angle_coeff 257 harmonic 80.0 111.2
    angle_coeff 258 harmonic 35.0 109.5
    angle_coeff 259 harmonic 80.0 111.2
    angle_coeff 260 harmonic 35.0 109.5
    angle_coeff 261 harmonic 63.0 110.1
    angle_coeff 262 harmonic 65.0 109.0
    angle_coeff 263 harmonic 35.0 109.5
    angle_coeff 264 harmonic 80.0 111.2
    angle_coeff 265 harmonic 35.0 109.5
    angle_coeff 266 harmonic 63.0 114.0
    angle_coeff 267 harmonic 41.0 109.5
    angle_coeff 268 harmonic 43.0 109.5
    angle_coeff 269 harmonic 43.0 109.5
    angle_coeff 270 harmonic 51.0 107.6
    angle_coeff 271 harmonic 69.0 109.8
    angle_coeff 272 harmonic 69.0 110.0
    angle_coeff 273 harmonic 69.0 110.0
    angle_coeff 274 harmonic 78.0 111.7
    angle_coeff 275 harmonic 75.0 111.0
    angle_coeff 276 harmonic 75.0 112.0
    angle_coeff 277 harmonic 35.0 109.5
    angle_coeff 278 harmonic 50.0 108.6
    angle_coeff 279 harmonic 50.0 109.5
    angle_coeff 280 harmonic 35.0 109.5
    angle_coeff 281 harmonic 63.0 115.6
    angle_coeff 282 harmonic 35.0 109.5
    angle_coeff 283 harmonic 63.0 114.0
    angle_coeff 284 harmonic 35.0 109.5
    angle_coeff 285 harmonic 50.0 114.7
    angle_coeff 286 harmonic 63.0 114.0
    angle_coeff 287 harmonic 35.0 109.5
    angle_coeff 288 harmonic 63.0 114.0
    angle_coeff 289 harmonic 35.0 109.5
    angle_coeff 290 harmonic 63.0 115.6
    angle_coeff 291 harmonic 35.0 109.5
    angle_coeff 292 harmonic 80.0 110.0
    angle_coeff 293 harmonic 80.0 113.0
    angle_coeff 294 harmonic 37.5 110.7
    angle_coeff 295 harmonic 35.0 105.0
    angle_coeff 296 harmonic 63.0 105.0
    angle_coeff 297 harmonic 35.0 109.5
    angle_coeff 298 harmonic 80.0 111.2
    angle_coeff 299 harmonic 35.0 105.0
    angle_coeff 300 harmonic 63.0 111.1
    angle_coeff 301 harmonic 41.0 109.5
    angle_coeff 302 harmonic 43.0 109.5
    angle_coeff 303 harmonic 35.0 109.5
    angle_coeff 304 harmonic 50.0 109.5
    angle_coeff 305 harmonic 50.0 109.5
    angle_coeff 306 harmonic 35.0 109.5
    angle_coeff 307 harmonic 80.0 109.7
    angle_coeff 308 harmonic 35.0 109.5
    angle_coeff 309 harmonic 60.0 112.0
    angle_coeff 310 harmonic 70.0 124.0
    angle_coeff 311 harmonic 70.0 124.0
    angle_coeff 312 harmonic 70.0 124.0
    angle_coeff 313 harmonic 70.0 118.0
    angle_coeff 314 harmonic 70.0 118.0
    angle_coeff 315 harmonic 70.0 118.0
    angle_coeff 316 harmonic 70.0 124.0
    angle_coeff 317 harmonic 70.0 124.0
    angle_coeff 318 harmonic 70.0 124.0
    angle_coeff 319 harmonic 70.0 118.0
    angle_coeff 320 harmonic 70.0 118.0
    angle_coeff 321 harmonic 70.0 118.0
    angle_coeff 322 harmonic 70.0 118.0
    angle_coeff 323 harmonic 70.0 118.0
    angle_coeff 324 harmonic 70.0 118.0
    angle_coeff 325 harmonic 70.0 118.0
    angle_coeff 326 harmonic 70.0 124.0
    angle_coeff 327 harmonic 70.0 124.0
    angle_coeff 328 harmonic 70.0 124.0
    angle_coeff 329 harmonic 70.0 124.0
    angle_coeff 330 harmonic 70.0 118.0
    angle_coeff 331 harmonic 70.0 118.0
    angle_coeff 332 harmonic 70.0 118.0
    angle_coeff 333 harmonic 70.0 118.0
    angle_coeff 334 harmonic 70.0 118.0
    angle_coeff 335 harmonic 70.0 118.0
    angle_coeff 336 harmonic 70.0 118.0
    angle_coeff 337 harmonic 35.0 92.07
    angle_coeff 338 harmonic 44.0 96.0
    angle_coeff 339 harmonic 44.0 96.0
    angle_coeff 340 harmonic 44.0 96.0
    angle_coeff 341 harmonic 5.0 109.47
    angle_coeff 342 harmonic 10.0 109.47
    angle_coeff 343 harmonic 10.0 160.0
    angle_coeff 344 harmonic 150.0 96.7
    angle_coeff 345 harmonic 150.0 96.7
    angle_coeff 346 harmonic 150.0 96.7
    angle_coeff 347 harmonic 150.0 96.7
    angle_coeff 348 harmonic 50.0 96.0
    angle_coeff 349 harmonic 62.0 98.9
    angle_coeff 350 harmonic 62.0 98.9
    angle_coeff 351 harmonic 68.0 103.7
    angle_coeff 352 harmonic 68.0 103.7
    angle_coeff 353 harmonic 68.0 103.7
    angle_coeff 354 harmonic 65.0 100.0
    angle_coeff 355 harmonic 5.0 109.47
    angle_coeff 356 harmonic 10.0 109.47
    angle_coeff 357 harmonic 10.0 160.0
    angle_coeff 358 harmonic 150.0 96.7
    angle_coeff 359 harmonic 150.0 96.7
    angle_coeff 360 harmonic 150.0 96.7
    angle_coeff 361 harmonic 150.0 96.7
    angle_coeff 362 harmonic 62.0 104.2
    angle_coeff 363 harmonic 62.0 104.2
    angle_coeff 364 harmonic 74.0 92.4
    angle_coeff 365 harmonic 10.0 130.0
    angle_coeff 366 harmonic 10.0 130.0
    angle_coeff 367 harmonic 74.0 97.0
    angle_coeff 368 harmonic 10.0 130.0
    angle_coeff 369 harmonic 74.0 90.0
    angle_coeff 370 harmonic 74.0 97.0
    angle_coeff 371 harmonic 74.0 97.0
    angle_coeff 372 harmonic 62.0 94.0
    angle_coeff 373 harmonic 10.0 109.47
    angle_coeff 374 harmonic 33.0 109.47
    angle_coeff 375 harmonic 150.0 180.0
    angle_coeff 376 harmonic 170.0 180.0
    angle_coeff 377 harmonic 100.0 180.0
    angle_coeff 378 harmonic 150.0 180.0
    angle_coeff 379 harmonic 140.0 180.0
    angle_coeff 380 harmonic 150.0 180.0
    angle_coeff 381 harmonic 10.0 90.0
    angle_coeff 382 harmonic 112.0 180.0
    angle_coeff 383 harmonic 150.0 180.0
    angle_coeff 384 harmonic 160.0 180.0
    angle_coeff 385 harmonic 150.0 180.0
    angle_coeff 386 harmonic 160.0 180.0
    angle_coeff 387 harmonic 160.0 180.0
    angle_coeff 388 harmonic 150.0 180.0
    angle_coeff 389 harmonic 150.0 180.0
    angle_coeff 390 harmonic 100.0 111.8
    angle_coeff 391 harmonic 83.0 116.9
    angle_coeff 392 harmonic 83.0 116.9
    angle_coeff 393 harmonic 100.0 111.8
    angle_coeff 394 harmonic 55.0 108.5
    angle_coeff 395 harmonic 55.0 108.5
    angle_coeff 396 harmonic 83.0 116.9
    angle_coeff 397 harmonic 100.0 111.8
    angle_coeff 398 harmonic 60.0 109.5
    angle_coeff 399 harmonic 83.0 116.9
    angle_coeff 400 harmonic 5.0 109.47
    angle_coeff 401 harmonic 10.0 109.47
    angle_coeff 402 harmonic 75.0 111.0
    angle_coeff 403 harmonic 10.0 109.47
    angle_coeff 404 harmonic 75.0 111.0
    angle_coeff 405 harmonic 75.0 111.0
    angle_coeff 406 harmonic 75.0 111.0
    angle_coeff 407 harmonic 83.0 116.9
    angle_coeff 408 harmonic 100.0 111.8
    angle_coeff 409 harmonic 60.0 109.5
    angle_coeff 410 harmonic 100.0 113.0
    angle_coeff 411 harmonic 100.0 113.0
    angle_coeff 412 harmonic 100.0 113.0
    angle_coeff 413 harmonic 70.0 104.5
    angle_coeff 414 harmonic 10.0 125.0
    angle_coeff 415 harmonic 100.0 120.5
    angle_coeff 416 harmonic 100.0 120.5
    angle_coeff 417 harmonic 100.0 120.5
    angle_coeff 418 harmonic 100.0 120.5
    angle_coeff 419 harmonic 100.0 120.5
    angle_coeff 420 harmonic 100.0 120.5
    angle_coeff 421 harmonic 10.0 125.0
    angle_coeff 422 harmonic 70.0 106.5
    angle_coeff 423 harmonic 70.0 107.0
    angle_coeff 424 harmonic 10.0 125.0
    angle_coeff 425 harmonic 70.0 104.0
    angle_coeff 426 harmonic 70.0 106.5
    angle_coeff 427 harmonic 70.0 106.5
    angle_coeff 428 harmonic 70.0 108.9
    angle_coeff 429 harmonic 20.0 145.0
    angle_coeff 430 harmonic 40.0 130.0
    angle_coeff 431 harmonic 33.0 109.47
    angle_coeff 432 harmonic 62.0 96.0
    angle_coeff 433 harmonic 74.0 107.0
    angle_coeff 434 harmonic 10.0 90.0
    angle_coeff 435 harmonic 50.0 121.9
    angle_coeff 436 harmonic 70.0 126.4
    angle_coeff 437 harmonic 46.0 115.7
    angle_coeff 438 harmonic 50.0 121.9
    angle_coeff 439 harmonic 50.0 121.9
    angle_coeff 440 harmonic 50.0 118.0
    angle_coeff 441 harmonic 50.0 121.9
    angle_coeff 442 harmonic 50.0 118.0
    angle_coeff 443 harmonic 50.0 121.9
    angle_coeff 444 harmonic 70.0 112.0
    angle_coeff 445 harmonic 70.0 108.6
    angle_coeff 446 harmonic 10.0 109.5
    angle_coeff 447 harmonic 10.0 100.0
    angle_coeff 448 harmonic 35.0 110.2
    angle_coeff 449 harmonic 35.0 119.8
    angle_coeff 450 harmonic 35.0 120.0
[...]
  0 settings made for charge
    set type 704 charge 0.54  # "Nitroalkane -NO2"
  0 settings made for charge
    set type 705 charge -0.37  # "Nitroalkane -NO2"
  0 settings made for charge
    set type 706 charge 0.02  # "Nitromethane CH3-NO2"
  0 settings made for charge
    set type 707 charge 0.06  # "Nitroalkane H-C-NO2"
  0 settings made for charge
    set type 708 charge 0.08  # "Nitroalkane RCH2-NO2"
  0 settings made for charge
    set type 709 charge 0.14  # "Nitroalkane R2CH-NO2"
  0 settings made for charge
    set type 710 charge 0.2  # "Nitroalkane R3C-NO2"
  0 settings made for charge
    set type 711 charge 0.65  # "Nitrobenzene -NO2"
  0 settings made for charge
    set type 712 charge 0.09  # "Nitrobenzene C-NO2"
  0 settings made for charge
    set type 713 charge 0.035  # "Benzonitrile -CH2-"
  0 settings made for charge
    set type 714 charge -0.9  # "Neutral Benzamidine N"
  0 settings made for charge
    set type 715 charge -0.5  # "Propylene Carbonate C=O"
  0 settings made for charge
    set type 716 charge 0.86  # "Propylene Carbonate C=O"
  0 settings made for charge
    set type 717 charge -0.45  # "Propylene Carbonate C-O"
  0 settings made for charge
    set type 718 charge 0.21  # "Propylene Carbonate CH2"
  0 settings made for charge
    set type 719 charge 0.16  # "Propylene Carbonate CH"
  0 settings made for charge
    set type 720 charge -0.1  # "Propylene Carbonate CH3"
  0 settings made for charge
    set type 721 charge 0.03  # "Propylene Carbonate CH2"
  0 settings made for charge
    set type 722 charge 0.03  # "Propylene Carbonate CH"
  0 settings made for charge
    set type 723 charge 0.06  # "Propylene Carbonate CH3"
  0 settings made for charge
    set type 724 charge -0.78  # "GTP O-(POn)2"
  0 settings made for charge
    set type 725 charge 0.9684  # "Phosphonium R4P+"
  0 settings made for charge
    set type 726 charge -0.5081  # "Phosphonium CH3-PR3+"
  0 settings made for charge
    set type 727 charge -0.008  # "Phosphonium RCH2-PR3+"
  0 settings made for charge
    set type 728 charge 0.172  # "Phosphonium CH3-PR3+"
  0 settings made for charge
    set type 729 charge 1.34  # "Hexafluorophosphate Ion"
  0 settings made for charge
    set type 730 charge -0.39  # "Hexafluorophosphate Ion"
  0 settings made for charge
    set type 731 charge 0.794  # "Nitrate Ion NO3-"
  0 settings made for charge
    set type 732 charge -0.598  # "Nitrate Ion NO3-"
  0 settings made for charge
    set type 733 charge -0.9  # "Amine RNH2"
  0 settings made for charge
    set type 734 charge -0.78  # "Amine R2NH"
  0 settings made for charge
    set type 735 charge -0.63  # "Amine R3N"
  0 settings made for charge
    set type 736 charge 0.0  # "Amine CH3-NH2"
  0 settings made for charge
    set type 737 charge 0.02  # "Amine CH3-NHR"
  0 settings made for charge
    set type 738 charge 0.03  # "Amine CH3-NR2"
  0 settings made for charge
    set type 739 charge 0.06  # "Amine RCH2-NH2"
  0 settings made for charge
    set type 740 charge 0.08  # "Amine RCH2-NHR"
  0 settings made for charge
    set type 741 charge 0.09  # "Amine RCH2-NR2"
  0 settings made for charge
    set type 742 charge 0.36  # "Amine RNH2"
  0 settings made for charge
    set type 743 charge 0.38  # "Amine R2NH"
  0 settings made for charge
    set type 744 charge 0.06  # "Amine H-C-N"
  0 settings made for charge
    set type 745 charge 0.12  # "Amine R2CH-NH2"
  0 settings made for charge
    set type 746 charge 0.18  # "Amine R3C-NH2"
  0 settings made for charge
    set type 747 charge 0.14  # "Amine R2CH-NHR"
  0 settings made for charge
    set type 748 charge 0.15  # "Amine R2CH-NR2"
  0 settings made for charge
    set type 749 charge 0.18  # "Aniline C-NH2"
  0 settings made for charge
    set type 750 charge 0.2  # "N-Me Aniline C-NHR"
  0 settings made for charge
    set type 751 charge 0.21  # "N-DiMe Aniline C-NR2"
  0 settings made for charge
    set type 752 charge 0.115  # "Benzyl Amine -CH2NH2"
  0 settings made for charge
    set type 753 charge 0.175  # "Benzyl Amine -CHRNH2"
  0 settings made for charge
    set type 754 charge 0.235  # "Benzyl Amine -CR2NH2"
  0 settings made for charge
    set type 755 charge 0.195  # "Benzyl Ether -CH2OR"
  0 settings made for charge
    set type 756 charge 0.1525  # "Benzyl Sulfide -CH2SH"
  0 settings made for charge
    set type 757 charge 0.135  # "Benzyl Amine -CH2NHR"
  0 settings made for charge
    set type 758 charge -0.21  # "Alkyne HCC-"
  0 settings made for charge
    set type 759 charge 0.2  # "Alkyne HCC-"
  0 settings made for charge
    set type 760 charge 0.01  # "Alkyne RCCH R w/ 2/3 H"
  0 settings made for charge
    set type 761 charge 0.01  # "Alkyne RCCH R w/ 1 H"
  0 settings made for charge
    set type 762 charge 0.01  # "Alkyne RCCH R w/ O H/Ph"
  0 settings made for charge
    set type 763 charge 0.06  # "Alkyne H-C-CC-"
  0 settings made for charge
    set type 764 charge 0.45  # "A & G Sugar C1'"
  0 settings made for charge
    set type 765 charge 0.48  # "C Sugar C1'"
  0 settings made for charge
    set type 766 charge 0.51  # "U & T Sugar C1'"
  0 settings made for charge
    set type 767 charge -0.655  # "Sugar O5'"
  0 settings made for charge
    set type 768 charge 0.39  # "Sugar H3' (-OH)"
  0 settings made for charge
    set type 769 charge -0.5  # "A & G Nucleoside N9"
  0 settings made for charge
    set type 770 charge -0.56  # "C Nucleoside N1"
  0 settings made for charge
    set type 771 charge -0.6  # "U & T Nucleoside N1"
  0 settings made for charge
    set type 772 charge 0.0  # "Alkyne RCCR"
  0 settings made for charge
    set type 773 charge -0.1  # "Ammonium R3NH+"
  0 settings made for charge
    set type 774 charge 0.29  # "Ammonium R3NH+"
  0 settings made for charge
    set type 775 charge 0.09  # "Ammonium CH3-NHR2+"
  0 settings made for charge
    set type 776 charge 0.15  # "Ammonium RCH2-NHR2+"
  0 settings made for charge
    set type 777 charge 0.21  # "Ammonium R2CH-NHR2+"
  0 settings made for charge
    set type 778 charge 0.27  # "Ammonium R3C-NHR2+"
  0 settings made for charge
    set type 779 charge 0.096  # "2-Phenyl Furan C2"
  0 settings made for charge
    set type 780 charge -0.039  # "2-Phenyl Furan C3"
  0 settings made for charge
    set type 781 charge 0.027  # "2-Phenyl Furan C2'"
  0 settings made for charge
    set type 782 charge 0.011  # "2-Phenyl Furan C3'"
  0 settings made for charge
    set type 783 charge 0.074  # "GLY Zwitterion HA"
  0 settings made for charge
    set type 784 charge -0.029  # "GLY Zwitterion CA"
  0 settings made for charge
    set type 785 charge 0.7  # "GLY Zwitterion C"
  0 settings made for charge
    set type 786 charge -0.352  # "GLY Zwitterion N"
  0 settings made for charge
    set type 787 charge -0.709  # "GLY Zwitterion O"
  0 settings made for charge
    set type 788 charge 0.317  # "GLY Zwitterion HN"
  0 settings made for charge
    set type 789 charge -0.22  # "Alkyl Fluoride C-F"
  0 settings made for charge
    set type 790 charge 0.02  # "Alkyl Fluoride RCH2-F"
  0 settings made for charge
    set type 791 charge 0.1  # "Alkyl Fluoride H-C-F"
  0 settings made for charge
    set type 792 charge 0.12  # "Alkyl Fluoride R2CH-F"
  0 settings made for charge
    set type 793 charge 0.22  # "Alkyl Fluoride R3C-F"
  0 settings made for charge
    set type 794 charge 0.36  # "Perfluoroalkane CF3-"
  0 settings made for charge
    set type 795 charge 0.24  # "Perfluoroalkane -CF2-"
  0 settings made for charge
    set type 796 charge 0.12  # "Perfluoroalkane >CF-"
  0 settings made for charge
    set type 797 charge 0.48  # "Tetrafluoromethane CF4"
  0 settings made for charge
    set type 798 charge -0.12  # "Perfluoroalkane C-F"
  0 settings made for charge
    set type 799 charge 0.25  # "DifluoroMeBenzene -CHF2"
  0 settings made for charge
    set type 800 charge 0.15  # "DifluoroMeBenzene -CHF2"
  0 settings made for charge
    set type 801 charge -0.08  # "Fluoroacetate FCH2-COO-"
  0 settings made for charge
    set type 802 charge -0.106  # "Chloroacetate ClCH2-COO-"
  0 settings made for charge
    set type 803 charge -0.2  # "Alkyl Chloride C-Cl"
  0 settings made for charge
    set type 804 charge -0.006  # "Alkyl Chloride RCH2-Cl"
  0 settings made for charge
    set type 805 charge 0.103  # "Alkyl Chloride H-C-Cl"
  0 settings made for charge
    set type 806 charge 0.097  # "Alkyl Chloride R2CH-Cl"
  0 settings made for charge
    set type 807 charge 0.2  # "Alkyl Chloride R3C-Cl"
  0 settings made for charge
    set type 808 charge -0.2  # "Alkyl Bromide C-Br"
  0 settings made for charge
    set type 809 charge -0.006  # "Alkyl Bromide RCH2-Br"
  0 settings made for charge
    set type 810 charge 0.103  # "Alkyl Bromide H-C-Br"
  0 settings made for charge
    set type 811 charge 0.097  # "Alkyl Bromide R2CH-Br"
  0 settings made for charge
    set type 812 charge 0.2  # "Alkyl Bromide R3C-Br"
  0 settings made for charge
    set type 813 charge -0.08  # "Acyl Fluoride F-C=O"
  0 settings made for charge
    set type 814 charge -0.08  # "Acyl Chloride Cl-C=O"
  0 settings made for charge
    set type 815 charge -0.08  # "Acyl Bromide Br-C=O"
  0 settings made for charge
    set type 816 charge 0.1  # "Trifluoroanisole C-OCF3"
  0 settings made for charge
    set type 817 charge -0.25  # "Trifluoroanisole -OCF3"
  0 settings made for charge
    set type 818 charge 0.6  # "Trifluoroanisole -OCF3"
  0 settings made for charge
    set type 819 charge -0.15  # "Trifluoroanisole -OCF3"
  0 settings made for charge
    set type 820 charge -0.025  # "N-Me,N-PhAcetamide N"
  0 settings made for charge
    set type 821 charge -0.045  # "N-Me,N-PhAcetamide Cipso"
  0 settings made for charge
    set type 822 charge 0.145  # "Benzyl Amine -CH2NR2"
  0 settings made for charge
    set type 823 charge 0.888  # "Alkyl Hydroxamic Acid C"
  0 settings made for charge
    set type 824 charge 1.003  # "Aryl Hydroxamic Acid C"
  0 settings made for charge
    set type 825 charge -0.658  # "Hydroxamic Acid C=O"
  0 settings made for charge
    set type 826 charge -0.634  # "Hydroxamic Acid N"
  0 settings made for charge
    set type 827 charge 0.411  # "Hydroxamic Acid HN"
  0 settings made for charge
    set type 828 charge -0.442  # "Hydroxamic Acid OH"
  0 settings made for charge
    set type 829 charge 0.435  # "Hydroxamic Acid OH"
  0 settings made for charge
    set type 830 charge 0.225  # "Benzyl Ether -CHROR"
  0 settings made for charge
    set type 831 charge 0.255  # "Benzyl Ether -CR2OR"
  0 settings made for charge
    set type 832 charge -0.034  # "3-Phenyl Pyrrole C3"
  0 settings made for charge
    set type 833 charge 0.003  # "3-Phenyl Pyrrole C3'"
  0 settings made for charge
    set type 834 charge 0.3  # "4-Phenyl Imidazole C4"
  0 settings made for charge
    set type 835 charge -0.04  # "4-Phenyl Imidazole C4'"
  0 settings made for charge
    set type 836 charge -0.0575  # "Diphenylmethane Cipso"
  0 settings made for charge
    set type 837 charge 2.0  # "Zinc Ion Zn+2"
  0 settings made for charge
    set type 838 charge -0.07  # "Alkyl Iodide RCH2-I"
  0 settings made for charge
    set type 839 charge 0.03  # "Alkyl Iodide R2CH-I"
  0 settings made for charge
    set type 840 charge 0.13  # "Alkyl Iodide R3C-I"
  0 settings made for charge
    set type 841 charge -0.13  # "Alkyl Iodide C-I"
  0 settings made for charge
    set type 842 charge 0.1  # "Alkyl Iodide H-C-I"
  0 settings made for charge
    set type 843 charge -0.685  # "N-Ph Sulfonamide -NHPh"
  0 settings made for charge
    set type 844 charge 0.155  # "N-Ph Sulfonamide Cipso"
  0 settings made for charge
    set type 845 charge -0.1  # "Benzoate C-COO-"
  0 settings made for charge
    set type 846 charge -0.427  # "N-Phenyl Urea N"
  0 settings made for charge
    set type 847 charge 0.218  # "N-Phenyl Urea Cipso"
  0 settings made for charge
    set type 848 charge 0.6  # "Tertiary Amide -CO-NR2"
  0 settings made for charge
    set type 849 charge -0.6  # "Tertiary Amide -CO-NR2"
  0 settings made for charge
    set type 850 charge -0.36  # "Tertiary Amide -CO-NR2"
  0 settings made for charge
    set type 851 charge 0.0  # "Tertiary Amide -NRCH3"
  0 settings made for charge
    set type 852 charge 0.06  # "Tertiary Amide -NRCH2R"
  0 settings made for charge
    set type 853 charge 0.12  # "Tertiary Amide -NRCHR2"
  0 settings made for charge
    set type 854 charge 0.18  # "Tertiary Amide -NRCR3"
  0 settings made for charge
    set type 855 charge 0.06  # "Tertiary Amide H-C-N"
  0 settings made for charge
    set type 856 charge 0.57  # "Tertiary Formamide C=O"
  0 settings made for charge
    set type 857 charge -0.57  # "Tertiary Formamide C=O"
  0 settings made for charge
    set type 858 charge 0.0  # "Tertiary Formamide H-C=O"
  0 settings made for charge
    set type 859 charge 0.02  # "B2-Peptide CA"
  0 settings made for charge
    set type 860 charge -0.04  # "B3-Peptide CA Main/N-Ter"
  0 settings made for charge
    set type 861 charge 0.0  # "B3-Pep CB GLY Main/C-Ter"
  0 settings made for charge
    set type 862 charge 0.06  # "B3-Pep CB ALA Main/C-Ter"
  0 settings made for charge
    set type 863 charge -0.07  # "B3-Pep CB PRO Main/C-Ter"
  0 settings made for charge
    set type 864 charge -0.14  # "B3-Peptide CA C-Ter"
  0 settings made for charge
    set type 865 charge 0.17  # "B3-Peptide CB ALA N-Ter"
  0 settings made for charge
    set type 866 charge 0.11  # "B3-Peptide CB GLY N-Ter"
  0 settings made for charge
    set type 867 charge 0.15  # "B3-Peptide CB PRO N-Ter"
  0 settings made for charge
    set type 868 charge 0.17  # "B3-Peptide CE PRO N-Ter"
  0 settings made for charge
    set type 869 charge 1.0  # "Alkyl Silane R4Si"
  0 settings made for charge
    set type 870 charge 0.85  # "Alkyl Silane R3SiH"
  0 settings made for charge
    set type 871 charge 0.7  # "Alkyl Silane R2SiH2"
  0 settings made for charge
    set type 872 charge 0.55  # "Alkyl Silane RSiH3"
  0 settings made for charge
    set type 873 charge -0.1  # "Alkyl Silane H-C-Si"
  0 settings made for charge
    set type 874 charge -0.43  # "Methyl Silane CH3-Si"
  0 settings made for charge
    set type 875 charge -0.37  # "Alkyl Silane RCH2-Si"
  0 settings made for charge
    set type 876 charge -0.31  # "Alkyl Silane R2CH-Si"
  0 settings made for charge
    set type 877 charge -0.25  # "Alkyl Silane R3C-Si"
  0 settings made for charge
    set type 878 charge -1.0  # "Fluoride Ion (GBSA)"
  0 settings made for charge
    set type 879 charge -1.0  # "Chloride Ion (GBSA)"
  0 settings made for charge
    set type 880 charge -1.0  # "Bromide Ion (GBSA)"
  0 settings made for charge
    set type 881 charge -1.0  # "Iodide Ion (GBSA)"
  0 settings made for charge
    set type 882 charge 1.0  # "Lithium Ion (GBSA)"
  0 settings made for charge
    set type 883 charge 1.0  # "Sodium Ion (GBSA)"
  0 settings made for charge
    set type 884 charge 1.0  # "Potassium Ion (GBSA)"
  0 settings made for charge
    set type 885 charge 1.0  # "Rubidium Ion (GBSA)"
  0 settings made for charge
    set type 886 charge 1.0  # "Cesium Ion (GBSA)"
  0 settings made for charge
    set type 887 charge 2.0  # "Magnesium Ion (GBSA)"
  0 settings made for charge
    set type 888 charge 2.0  # "Calcium Ion (GBSA)"
  0 settings made for charge
    set type 889 charge 2.0  # "Strontium Ion (GBSA)"
  0 settings made for charge
    set type 890 charge 2.0  # "Barium Ion (GBSA)"
  0 settings made for charge
    set type 891 charge -0.05  # "Ammonium CH3-NR3+"
  0 settings made for charge
    set type 892 charge 0.05  # "Ammonium RCH2-NR3+"
  0 settings made for charge
    set type 893 charge 0.15  # "Ammonium R2CH-NR3+"
  0 settings made for charge
    set type 894 charge 0.25  # "Ammonium R3C-NR3+"
  0 settings made for charge
    set type 895 charge 0.1  # "Ammonium CH3-NR3+"
  0 settings made for charge
    set type 896 charge 0.115  # "Anilinium Ar-NR3+"
  0 settings made for charge
    set type 897 charge 0.135  # "Anilinium C-NR3+"
  0 settings made for charge
    set type 898 charge 0.015  # "Anilinium Ar-NHR2+"
  0 settings made for charge
    set type 899 charge 0.155  # "Anilinium C-NHR2+"
  0 settings made for charge
    set type 900 charge 0.0  # "Triene R2-C= (mid C=C)"
  0 settings made for charge
    set type 901 charge -0.115  # "Triene RH-C= (mid C=C)"
  0 settings made for charge
    set type 902 charge 0.15  # "Allene/Ketene H-C=C=X"
  0 settings made for charge
    set type 903 charge -0.25  # "Allene/Ketene H2C=C=X"
  0 settings made for charge
    set type 904 charge -0.1  # "Allene/Ketene HRC=C=X"
  0 settings made for charge
    set type 905 charge 0.05  # "Allene/Ketene R2C=C=X"
  0 settings made for charge
    set type 906 charge -0.1  # "Allene =C="
  0 settings made for charge
    set type 907 charge 0.2  # "Ketene =C="
  0 settings made for charge
    set type 908 charge -0.25  # "Ketene C=O"
  0 settings made for charge
    set type 909 charge 0.088  # "N-Me-HIS CB"
  0 settings made for charge


# ----------------- Run Section -----------------
#Group

group water type 2 3
3000 atoms in group water
group nitrogen type 1
250 atoms in group nitrogen
group ammonium type 350
12 atoms in group ammonium
group chlorid type 347
12 atoms in group chlorid
group methanol type 99 100 101 102
6000 atoms in group methanol
group droplet type 2 3 99 100 101 102 350
9012 atoms in group droplet

neigh_modify every 1 delay 10 check yes page 100000 one 10000

#Minimierung
unfix fShakeSPCE

minimize 1.0e-5 1.0e-7 1000 10000
WARNING: Resetting reneighboring criteria during minimization (../min.cpp:168)
PPPM initialization ...
  G vector (1/distance) = 0.00643742
  grid = 8 8 8
  stencil order = 5
  estimated absolute RMS force accuracy = 0.000756097
  estimated relative force accuracy = 2.27696e-06
  using double precision FFTs
  3d grid and FFT values/proc = 648 48
Neighbor list info ...
  1 neighbor list requests
  update every 1 steps, delay 0 steps, check yes
  max neighbors/atom: 10000, page size: 100000
  master list distance cutoff = 302
  ghost atom cutoff = 302
  binsize = 151 -> bins = 7 7 7
Memory usage per processor = 10.8259 Mbytes
Step Temp E_pair E_mol TotEng Press 
       0            0 2.2909785e+10    502418.82 2.2910288e+10    6283584.5 
    1000            0   -19873.122    2174.3303   -17698.791 -0.011892167 
Loop time of 2896.22 on 12 procs for 1000 steps with 9274 atoms

100.0% CPU use with 12 MPI tasks x 1 OpenMP threads

Minimization stats:
  Stopping criterion = max iterations
  Energy initial, next-to-last, final = 
         22910287833.4     -17696.9896973     -17698.7912863
  Force two-norm initial, final = 7.42502e+11 155.786
  Force max component initial, final = 3.03082e+11 9.71967
  Final line search alpha, max atom move = 0.0029348 0.0285253
  Iterations, force evaluations = 1000 1941

MPI task timing breakdown:
Section |  min time  |  avg time  |  max time  |%varavg| %total
---------------------------------------------------------------
Pair    | 0.045315   | 270.56     | 2867.9     |4796.7 |  9.34
Bond    | 0.0057189  | 0.35887    | 3.952      | 181.2 |  0.01
Kspace  | 11.199     | 2612.2     | 2883.2     |1545.9 | 90.19
Neigh   | 10.852     | 10.858     | 10.864     |   0.1 |  0.37
Comm    | 1.0809     | 1.2751     | 1.6519     |  18.1 |  0.04
Output  | 7.6771e-05 | 9.501e-05  | 0.00028491 |   0.6 |  0.00
Modify  | 0          | 0          | 0          |   0.0 |  0.00
Other   |            | 0.9718     |            |       |  0.03

Nlocal:    772.833 ave 8508 max 13 min
Histogram: 11 0 0 0 0 0 0 0 0 1
Nghost:    8587.17 ave 9371 max 804 min
Histogram: 1 0 0 0 0 0 0 0 0 11
Neighs:    3.40055e+06 ave 3.61378e+07 max 230 min
Histogram: 10 1 0 0 0 0 0 0 0 1

Total # of neighbors = 40806581
Ave neighs/atom = 4400.11
Ave special neighs/atom = 3.90878
Neighbor list builds = 30
Dangerous builds = 0